361
Lattice="21.856 0.0 0.0 0.0 18.5454 0.0 0.0 0.0 40.928" Properties=species:S:1:pos:R:3:momenta:R:3:forces:R:3 energy=-671008.2935234875 stress="-0.007454048693028651 -0.0003158871926920206 -0.0021754621058837635 -0.0003158871926920206 -0.007133271788337283 -0.0007622518886936439 -0.0021754621058837635 -0.0007622518886936439 -0.02222837667262427" free_energy=-671008.2935234875 pbc="T T T"
Mo       1.08292151       0.76481300      14.75034896       0.47346064      -1.02945783       1.41910613       0.15689483       0.00442965      -0.09968204
Mo       3.27744373       2.34932510      14.73379020       0.06797732      -0.44337624       1.27483864       0.05501119      -0.07738704       0.35063099
Mo       3.25675467       0.79990847      16.95456294       0.01223634       0.25682006       0.88384191       0.10579849       0.09070198       0.30511504
Mo       1.07119022       2.33367972      16.96701208       0.12977236      -0.09891223       1.00151255       0.11309272       0.20557504       0.41101036
Mo       1.10382331       0.81149117      19.28687748      -0.27237727      -0.17704875      -0.07039211       0.00042063       0.04532303       0.07970662
Mo       3.29119932       2.36948346      19.27912488      -0.10239337      -0.21232815       0.12029058       0.04164118      -0.05356271       0.09469193
Mo       3.30478918       0.82473138      21.61265013       0.02958221       0.11517679      -0.43660629       0.01293557       0.02753181      -0.08167215
Mo       1.13569148       2.36986839      21.60020316      -0.07446091      -0.00687894      -0.44922088      -0.01775303       0.00747051      -0.04346307
Mo       1.11379788       0.83447355      23.92592214      -0.18031833       0.19370865      -1.17750350      -0.13157021       0.02760873      -0.40460489
Mo       3.32283425       2.36813622      23.93186828       0.01434127       0.31872622      -1.17902076       0.00175547       0.03604155      -0.30214610
Mo       3.29639726       0.82596625      26.11511016      -0.06207071       0.23595459      -2.12378154       0.37380428       0.00382916      -0.01859494
Mo       1.16139040       2.39136058      26.17386522      -0.53542236       0.71276815      -2.27937502       0.09735670       0.09839967      -0.17758967
Mo       1.08655960       3.90031329      14.75577017       0.13896350      -0.46075843       1.53418034      -0.14404660      -0.10153312       0.05976425
Mo       3.35367723       5.42186151      14.80207463       0.36003190      -0.06249597       0.89941835      -0.15916298      -0.22114350      -0.49656283
Mo       3.27838399       3.88233438      16.97986354       0.02136766      -0.42127773       0.99298814       0.01546757       0.01984030       0.37328058
Mo       1.10985883       5.43909156      17.00983849       0.04136765      -0.40303648       0.67213776       0.05774158       0.03440165       0.15063631
Mo       1.11126514       3.90938787      19.28931431      -0.07860665      -0.30802423       0.04912916       0.01907271      -0.03140629       0.06541113
Mo       3.31204958       5.46254437      19.30389117      -0.01337963      -0.16002985       0.04803716       0.00113103      -0.07078743       0.02048941
Mo       3.31648967       3.91279388      21.60434799      -0.06353026      -0.05854897      -0.52125418      -0.03748279      -0.01311144      -0.06838406
Mo       1.14009842       5.47197152      21.60229393      -0.11556144       0.09673465      -0.54350014      -0.03457361      -0.02238116      -0.03160198
Mo       1.13528234       3.92124834      23.92970819      -0.21827750       0.25353766      -1.21605461      -0.03271656       0.00427396      -0.24702589
Mo       3.33133680       5.45498962      23.92887859      -0.19893356       0.03631583      -1.07117808      -0.03753516       0.04380129      -0.19453321
Mo       3.34361680       3.91216259      26.15016590      -0.15897632       0.34802421      -1.63186168      -0.00611207       0.04318660      -0.23942020
Mo       1.12585457       5.45380311      26.15566677      -0.19605719       0.41102878      -1.41968525       0.02925071      -0.00880667      -0.19637673
Mo       1.08818450       6.94782656      14.64820933      -0.36304718       0.12727209       0.87378101      -0.13121745       0.05830557       0.60471863
Mo       3.29073466       8.51637326      14.74992020      -0.36975088      -0.47575575       1.51203269      -0.03902622       0.17009007       0.44618786
Mo       3.29588623       6.97261578      16.99051650      -0.10002560      -0.19745050       0.92592759      -0.09418947       0.07411692       0.37309066
Mo       1.11420352       8.53714718      16.97626189      -0.27996141      -0.01125547       0.77774942      -0.03917980       0.02928742       0.18948092
Mo       1.12199477       6.99712254      19.30226256      -0.02579975      -0.10803073       0.04445986       0.00241324      -0.07471381       0.02695543
Mo       3.31753905       8.54272822      19.31146883      -0.13201618      -0.12685965       0.13973709       0.02798305      -0.00066023       0.02304824
Mo       3.32955551       7.01621467      21.61791693      -0.06648143      -0.04828719      -0.46928498      -0.06050945      -0.05793175      -0.06105993
Mo       1.14270940       8.56628334      21.62112349      -0.11288594       0.05703812      -0.46873364      -0.04707914      -0.06567946      -0.10118794
Mo       1.14440298       7.02507881      23.92488502      -0.12895176       0.25389026      -0.97293472      -0.00031173      -0.05542201      -0.18213856
Mo       3.32364435       8.56083213      23.92162227      -0.18293827       0.16831492      -1.15740948      -0.05149120      -0.03454889      -0.20606650
Mo       3.31025074       6.97606971      26.13672238      -0.10432520       0.18300238      -1.45500739      -0.03269006       0.01983412      -0.19951657
Mo       1.16711134       8.54070071      26.14704613      -0.17160373       0.28294891      -1.25314403      -0.03763579      -0.05540463      -0.23527173
Mo       1.11524906      10.04492394      14.78342896      -0.27808301      -0.15044977       1.13537722      -0.00524692       0.12960275       0.24437086
Mo       3.29245100      11.55476977      14.70031449      -0.26662666      -0.28296601       1.18354047       0.01781342       0.07834001       0.27076650
Mo       3.31550197      10.07444940      17.02720591      -0.25979046      -0.22626767       0.97119736       0.00346262      -0.02203369       0.10103641
Mo       1.12748347      11.61529127      17.00065078      -0.29377699       0.12206213       0.74708163      -0.00676619       0.08126027       0.15899801
Mo       1.12978280      10.08644494      19.32137205      -0.15966656       0.02872528       0.11549092      -0.04080511      -0.03980803       0.07657132
Mo       3.31611847      11.62798994      19.31057813      -0.13821129       0.02966555       0.31885872       0.00858937      -0.00747514       0.05816609
Mo       3.33582723      10.10385793      21.63432952      -0.11863014       0.09562556      -0.42920593      -0.00884035      -0.06329410      -0.08580176
Mo       1.14897011      11.65051813      21.61539365      -0.04235707       0.07717915      -0.49200748      -0.06149375      -0.05875448      -0.06697174
Mo       1.14933667      10.11480514      23.93506838      -0.12509023       0.18087395      -1.02220065      -0.01842856      -0.06845670      -0.22405845
Mo       3.32907816      11.65587638      23.91327461      -0.07122553       0.10246603      -1.22693184       0.04676406      -0.03855147      -0.19105943
Mo       3.33214324      10.08778947      26.13395337      -0.02839191       0.19752315      -1.44593377      -0.01150766      -0.04051835      -0.21410281
Mo       1.19479851      11.64531925      26.15339489      -0.04445986       0.22522482      -1.34921194      -0.08221837      -0.00713865      -0.28604637
Mo       1.06578988      13.12619831      14.81557059      -0.10557320      -0.03374504       1.16301478       0.05917072       0.10118963       0.29636886
Mo       3.29870392      14.69124902      14.78840130       0.49036201       0.17272351       0.78193790       0.29883579       0.10888326       0.03835691
Mo       3.29526700      13.17203508      17.02097870      -0.12744091      -0.01738219       0.84855397       0.00648529       0.04602742       0.15440804
Mo       1.09372908      14.69695828      17.00789418      -0.24317545       0.06752428       1.04426496       0.01830850       0.00332235       0.11532826
Mo       1.12490762      13.17445007      19.30337054      -0.11016984       0.10671221       0.22399392      -0.04291243       0.03011816       0.09244777
Mo       3.30067324      14.72385671      19.30894071      -0.16176508       0.09830961       0.18513936       0.03603554      -0.01102412       0.10752519
Mo       3.31880099      13.19464249      21.63133757      -0.03224275       0.13287311      -0.52433143       0.06575308      -0.05856144      -0.09425894
Mo       1.13191845      14.73696110      21.59632081       0.03012714       0.15909813      -0.45186218      -0.03977257       0.00323809      -0.08832797
Mo       1.13778915      13.21144765      23.95404511      -0.12281221       0.07695477      -1.24625013      -0.02973318      -0.07897211      -0.32338184
Mo       3.31279847      14.75661481      23.88282984       0.25363810       0.23277263      -0.98687210       0.00501360      -0.07374942      -0.00234748
Mo       3.34409505      13.15797820      26.17715064      -0.17529429       0.75696303      -0.82998789      -0.01703642       0.03918331      -0.06716966
Mo       1.11824339      14.74304037      26.13423313      -0.13235810       0.61909365      -1.08940652      -0.34703804      -0.01333644      -0.47050157
Mo       1.07490331      16.20226555      14.72089914       0.26432941      -0.02421198       1.33590924       0.06514290      -0.07816665      -0.02975582
Mo       3.24802359      17.81910560      14.74754597       0.37190068      -0.71551203       0.78925279       0.46839845      -0.27736312       0.00089765
Mo       3.25789034      16.26127097      16.98290521      -0.32510724      -0.02104925       1.07443057       0.10831806       0.04142409       0.20736312
Mo       1.05290268      17.80153628      16.95208726       0.39532839       0.04417564       1.08407262       0.20394725      -0.08810477       0.40599476
Mo       1.10568255      16.26271287      19.30037202      -0.25144983       0.03109519       0.00493429      -0.00712805       0.05427396       0.06985224
Mo       3.28694022      17.81321596      19.28278733      -0.15707868      -0.04486375       0.07875838       0.02740392       0.03725757       0.11060497
Mo       3.31070928      16.28000482      21.61972526       0.06775507       0.15656367      -0.47531553       0.03036357       0.02458907      -0.10224970
Mo       1.13032887      17.82386696      21.59931345      -0.00654984       0.04464578      -0.26761181      -0.05483964       0.03035092      -0.06805058
Mo       1.13747045      16.29127348      23.91377109      -0.04939842       0.12908425      -1.00766919      -0.04684445      -0.04014682      -0.17733189
Mo       3.30956163      17.85242692      23.92665262       0.19637773       0.22114533      -0.87381093      -0.03193657      -0.16264293      -0.25020358
Mo       3.26993300      16.26981629      26.24094913      -0.44169016       0.31835653      -0.99123368      -0.09368667       0.11478804      -0.16883837
Mo       1.10424562      17.83300151      26.15534129      -0.25524511      -0.48496400      -1.17511863      -0.18606064       0.16679800      -0.38547832
Mo       5.52158527       0.80726839      14.74078511      -0.09433269      -0.48908623       0.90743203      -0.05778993      -0.04138870       0.13476792
Mo       7.70903475       2.34892932      14.78259433       0.19359111      -0.24888332       1.25560155       0.03322248       0.01308686       0.27643595
Mo       7.64421276       0.81865315      16.99609635       0.00502190      -0.17298422       0.77088331      -0.00169973      -0.05102099       0.25168480
Mo       5.47200360       2.35726690      16.97728850      -0.02459022      -0.21991656       0.93629194       0.10706597      -0.02311576       0.18743764
Mo       5.47081216       0.81980148      19.30452374      -0.06379098      -0.15201831       0.28500469       0.01204986      -0.04751711       0.03683589
Mo       7.66078123       2.36289707      19.31283553       0.14420552      -0.04575914       0.37789491      -0.03686799      -0.06147338       0.02131912
Mo       7.68366789       0.81639541      21.61983335       0.03747621       0.05852760      -0.22391699       0.00160505       0.01963982      -0.09484898
Mo       5.49548802       2.36918157      21.60533903       0.06711612       0.06323964      -0.31778168      -0.02181548      -0.01292482      -0.06839461
Mo       5.50432121       0.82126972      23.92587732       0.23765990       0.27440099      -1.12351058       0.03139711      -0.01300043      -0.33536534
Mo       7.68755832       2.36845022      23.94359891       0.07924347       0.40857339      -0.93995258       0.06012895       0.02351443      -0.21295159
Mo       7.65383406       0.79084441      26.19284945       0.17060576       0.68754966      -1.54492294       0.02770006       0.04254574      -0.21078678
Mo       5.47161527       2.35817294      26.12569867       0.19048181       0.80717136      -1.84627979      -0.13949691      -0.19372193       0.08284685
Mo       5.47393063       3.87500908      14.79016232       0.12759905      -0.43261655       1.60569864       0.23046684      -0.16055105       0.43206802
Mo       7.67144559       5.42934582      14.71553671       0.04226518      -0.14176295       1.49840730      -0.07165355      -0.05086981       0.37923291
Mo       7.68158563       3.90678595      17.02723463       0.13332402      -0.21580929       1.10646175      -0.00325286       0.00369622       0.21021928
Mo       5.49850183       5.44007511      17.00121333       0.22458373      -0.20760115       1.16613050      -0.00959730      -0.00009716       0.27298927
Mo       5.48749646       3.91225813      19.30556160       0.02779356      -0.11085154       0.27425782      -0.01288243      -0.04684024       0.08122681
Mo       7.67624345       5.45680935      19.31848123       0.13837797      -0.01598674       0.48198077      -0.02295159      -0.02074132       0.03925672
Mo       7.68791972       3.91850407      21.62406929       0.13684148       0.15465962      -0.22733616      -0.04604491      -0.01477545      -0.07523771
Mo       5.50949688       5.46520784      21.61549553       0.02053424       0.03465326      -0.35538397      -0.05215941      -0.04653054      -0.06236020
Mo       5.51034627       3.91417631      23.90843867       0.11285175       0.28295746      -0.99999316      -0.00525354       0.05851543      -0.20784982
Mo       7.69786787       5.45564852      23.93028325       0.11095625       0.22659890      -0.99874730      -0.05082950       0.00789762      -0.14976475
Mo       7.65078135       3.90417064      26.15359613       0.11405273       0.55736700      -1.27520407      -0.06261147      -0.01009991      -0.35779196
Mo       5.51080235       5.44822482      26.13871871       0.00015173       0.32295531      -1.34145684       0.00928795       0.06495834      -0.24231065
Mo       5.47664003       6.98385289      14.75475167       0.26812896      -0.10856070       1.76146307       0.49014266       0.12560118       0.53162962
Mo       7.69274478       8.52085069      14.79259666       0.13653376      -0.25154813       1.45184038      -0.03162765       0.04070338       0.29660391
Mo       7.67066067       6.99249181      17.00743594       0.15685857      -0.09287527       1.10022605      -0.01227330      -0.00425837       0.21277258
Mo       5.48388632       8.51831895      16.98759960      -0.03564054      -0.02908002       0.95528327       0.04837404       0.09153496       0.20694135
Mo       5.49609432       7.00078959      19.31801397      -0.06824444      -0.09215724       0.31129594      -0.00352908      -0.00098478       0.01199107
Mo       7.68323460       8.54481262      19.31094965       0.01707874       0.06286139       0.63120178      -0.00791184      -0.01477434       0.02806833
Mo       7.69798800       7.00829557      21.63714248       0.07418952       0.08292335      -0.25100320      -0.03817969      -0.00597781      -0.06902710
Mo       5.51921112       8.55587573      21.63206662      -0.08910350      -0.01359333      -0.36295315      -0.03110293      -0.02594480      -0.08264798
Mo       5.51723039       7.01229083      23.94794100      -0.04159417       0.08762257      -1.03095372      -0.00994576      -0.00614394      -0.17630743
Mo       7.71905071       8.55467823      23.93240939       0.04777859      -0.01880115      -0.95255649      -0.02023312       0.04529232      -0.18893874
Mo       7.69190896       6.94835835      26.22272215       0.16897097       0.07655943      -1.28190136      -0.03805032       0.12877122      -0.23021960
Mo       5.43311724       8.52178814      26.12093563      -0.00975317       0.01854898      -1.38968206      -0.00076845       0.02438239      -0.24705452
Mo       5.49839976      10.06717983      14.75248956      -0.20016232      -0.16194672       1.28005501       0.02662595       0.04802677       0.23249885
Mo       7.66292474      11.56427394      14.65416850      -0.02356875       0.20488932       1.19936053      -0.02094311       0.09389094       0.31430762
Mo       7.66932634      10.06480086      17.00510431      -0.02167538      -0.05822201       1.02362388      -0.00676118       0.06524915       0.17696461
Mo       5.48647046      11.61248911      16.99825165      -0.15190078       0.10202795       0.72841084       0.03113527       0.08408672       0.10187207
Mo       5.50530799      10.08825934      19.33462960      -0.14818885      -0.09439680       0.44675694      -0.00606406       0.05587310       0.05878818
Mo       7.67540705      11.62522280      19.32980668      -0.09650600       0.01897424       0.50340399       0.00518050       0.04586660       0.04540827
Mo       7.70835817      10.09813490      21.66340805      -0.00405385       0.09824763      -0.19605291      -0.03834624       0.03729358      -0.07767958
Mo       5.51552993      11.64325397      21.63352596      -0.09967727       0.11325350      -0.34324593       0.01614970      -0.00136012      -0.10077753
Mo       5.51993220      10.10688892      23.97504626      -0.11941655       0.02038037      -1.21211188      -0.01770476      -0.00941355      -0.25491138
Mo       7.71359320      11.64292193      23.98133752      -0.02072443       0.13957254      -1.04700030      -0.02807951      -0.02267323      -0.27554386
Mo       7.71228298      10.13255534      26.24261299       0.07155462      -0.07290306      -1.45290887      -0.02843407      -0.02694568      -0.27276260
Mo       5.50766639      11.57645541      26.15740114       0.01817074       0.17341589      -1.58366851      -0.10622404       0.03064732      -0.20044252
Mo       5.51059744      13.13339016      14.79716807      -0.22705835       0.46097213       0.58348516      -0.02086501       0.10170597       0.32595610
Mo       7.68335816      14.74000060      14.77554463      -0.26266684       0.17295003       1.33979855       0.07449473      -0.04787293       0.20231727
Mo       7.65687642      13.16512492      17.02827332      -0.17258247       0.06228654       0.96068983       0.00409241       0.06238634       0.17054040
Mo       5.47162706      14.71675497      16.99322086      -0.17963664      -0.08875944       0.73291773       0.06253925      -0.05293088       0.30953371
Mo       5.49205392      13.17646761      19.32888185      -0.15087930       0.12166038       0.25493952       0.03949532       0.00022333       0.03973959
Mo       7.66518696      14.71193231      19.30911297      -0.11607432       0.04496846       0.42571838      -0.00898204       0.01423806       0.04467429
Mo       7.70149996      13.18816989      21.64477430      -0.10484876       0.13721332      -0.16235488      -0.03538198       0.00230676      -0.06946954
Mo       5.49783552      14.73525607      21.62615149       0.02074580       0.15690558      -0.40002975       0.05638458      -0.03917814      -0.11801091
Mo       5.52974926      13.21310313      23.95023673       0.16563515       0.22933637      -1.15214610      -0.01303819      -0.08741353      -0.19145106
Mo       7.69413794      14.73849465      23.93674888       0.14958643       0.15449507      -0.59556978      -0.01102060      -0.04428219      -0.32508514
Mo       7.72417658      13.23836777      26.29306930       0.04235921       0.12596640      -1.12553857      -0.06291637      -0.15924212      -0.29834762
Mo       5.52367034      14.73629571      26.12863692       0.27135580       0.29884377      -1.31030609      -0.09667369      -0.05000534      -0.18723825
Mo       5.51144376      16.27496212      14.76133836       0.01456779      -0.36837467       1.33968742       0.08361564       0.08074127       0.19207244
Mo       7.71461140      17.78988787      14.72481329      -0.09055664      -0.09836517       1.17941182       0.06761297       0.02693289       0.29869393
Mo       7.65411055      16.25856933      16.98673580      -0.16157702       0.12304942       0.92054240      -0.00535573       0.01060445       0.21857496
Mo       5.47137371      17.80391230      16.96821837      -0.15986744       0.13442670       0.86998360       0.03921841      -0.00428109       0.27196836
Mo       5.47665644      16.26983952      19.30394094      -0.11081521       0.03524093       0.24096367       0.00795741       0.00728363       0.01756239
Mo       7.66428846      17.81090824      19.29794152       0.02336573       0.01068276       0.36993253      -0.04260138      -0.02478471       0.02652878
Mo       7.67513977      16.27467392      21.63516004      -0.03131530       0.05473873      -0.09607005       0.02488933       0.00008228      -0.11823076
Mo       5.48896853      17.82444168      21.60875914       0.00104926       0.11159093      -0.26058115       0.03104641      -0.00370974      -0.09874882
Mo       5.48045884      16.29455609      23.96754379       0.35935875       0.15001596      -0.99284283      -0.01453411      -0.03439961      -0.33149643
Mo       7.66636987      17.80499123      23.93612446       0.16839185       0.28636808      -0.74198494       0.01395335       0.03286519      -0.29275322
Mo       7.70823441      16.30316684      26.16230345       0.08167963       0.30509870      -0.87911491      -0.15914977      -0.03710867      -0.43876813
Mo       5.47834801      17.79338718      26.22678224       0.13644614      -0.14547702      -1.86108051      -0.12150332       0.24580281      -0.00697263
Mo       9.88629016       0.78610935      14.80434068      -0.04373970      -0.07269363       1.18083505      -0.00380661      -0.03858349       0.20324452
Mo      11.96392581       2.36471199      14.80927597       0.00343626       0.01473447       1.15622560       0.02565888      -0.08912806       0.18660938
Mo      12.01958109       0.80367888      17.02409691       0.03354203       0.05300564       0.91441568      -0.01905971      -0.03333181       0.18498530
Mo       9.84777095       2.35284992      17.01412234       0.10600060      -0.05336465       0.90382694      -0.03868078      -0.06201569       0.17654936
Mo       9.84156628       0.81504302      19.31689645       0.11248633       0.04223313       0.42770790      -0.04274291      -0.01670810       0.06149259
Mo      12.03338848       2.35414131      19.31719044       0.04819744       0.13268078       0.40647060      -0.00767081      -0.01036379       0.06260232
Mo      12.03574991       0.81403219      21.62698544      -0.03420877      -0.04979803      -0.10943045      -0.03450498       0.02216996      -0.04592097
Mo       9.86109254       2.36420532      21.62422140       0.03529863       0.16654123      -0.18968899      -0.04023702      -0.03223751      -0.05146465
Mo       9.86536116       0.83042505      23.96215177      -0.13076819       0.15399716      -0.74612213       0.03528944      -0.05622352      -0.09070705
Mo      12.05052995       2.36321496      23.93959430      -0.06122660       0.10122445      -0.65341782      -0.01548764       0.11766785      -0.19759223
Mo      12.02993177       0.84012197      26.25576286       0.27190928       0.41420647      -1.23834117      -0.03021360      -0.00113386      -0.36150966
Mo       9.80978557       2.33929802      26.26589296      -0.02491504       0.08410297      -1.03553540       0.11284094      -0.04843367      -0.44017852
Mo       9.83280921       3.92569156      14.80351507       0.16263483      -0.11309750       1.26620097       0.03325645      -0.11887074       0.24364501
Mo      12.00833526       5.43901111      14.70073263       0.05913236       0.07627735       1.18018541       0.00697757      -0.03118700       0.24078547
Mo      12.02154019       3.90101946      17.04292177       0.04924456       0.05849554       0.97046865       0.00674674      -0.03428209       0.18171402
Mo       9.85401693       5.44499977      17.01011545       0.18564155      -0.01629447       1.11830917      -0.00102031      -0.03662421       0.20512087
Mo       9.85157585       3.90311689      19.34376639       0.22533167       0.09212091       0.47542025      -0.01591275      -0.02312941       0.03491912
Mo      12.03778493       5.44734870      19.32184117       0.05839297       0.04159417       0.52192947      -0.00520655       0.01104154       0.08581479
Mo      12.04948670       3.91001060      21.62546404      -0.08616515       0.12254936      -0.09376425      -0.00454270      -0.02396568      -0.03825680
Mo       9.87121540       5.45933091      21.62373005       0.10223096       0.16146163      -0.16176935      -0.01088442       0.02073246      -0.05954762
Mo       9.87739908       3.91146092      23.94929238       0.01581365       0.25015482      -0.69479402       0.01457707      -0.01600700      -0.17881058
Mo      12.06795214       5.46624894      23.89011768      -0.01320012       0.01763436      -0.77505256       0.03192558      -0.01717995      -0.11281888
Mo      12.07015976       3.88433953      26.12597625       0.08328664       0.14942829      -0.88778464       0.06881962       0.11551427      -0.27444179
Mo       9.94981416       5.45407737      26.10149426       0.24266898       0.24107693      -1.06949201       0.01088734       0.07799425      -0.22392928
Mo       9.85250459       6.99477794      14.76514610       0.03669194      -0.10619506       1.32789130      -0.00865334      -0.00340124       0.26043231
Mo      12.04510722       8.51232393      14.81877200       0.07399719      -0.09683295       1.40793828      -0.00001126       0.06206001       0.25550772
Mo      12.03118603       6.98631953      17.02822236       0.10698361      -0.00919115       1.17259486       0.01930739       0.02259666       0.18523702
Mo       9.85124001       8.52702246      17.00518282       0.13615765      -0.00703280       1.17533660      -0.01002827       0.04215503       0.19241456
Mo       9.86526085       6.99891169      19.33311779       0.12770376       0.08024786       0.60586361      -0.02968897       0.00992967       0.02818669
Mo      12.04697540       8.53573489      19.31862251      -0.01589272       0.08541080       0.60996234       0.01114950       0.04490385       0.09022944
Mo      12.06716638       7.00030727      21.61519542      -0.00232931       0.07239018      -0.24716946      -0.03136902      -0.01369535      -0.04484354
Mo       9.88534349       8.54910942      21.62212774       0.01623036       0.07773904      -0.14933213      -0.03621102       0.00225482      -0.06254852
Mo       9.89177864       7.00948123      23.92505510       0.14033758       0.14697931      -0.92369658      -0.04245291       0.04695837      -0.16413080
Mo      12.09170567       8.54748333      23.91244159       0.16341696       0.06185060      -0.92159379      -0.05190573       0.00369223      -0.12576127
Mo      12.10358752       7.02949965      26.11676050       0.20325026      -0.09524518      -1.31566564       0.00400289      -0.00388747      -0.16764740
Mo       9.96051728       8.56673462      26.16330018       0.27783298      -0.13300347      -1.33753121      -0.03917287       0.00588917      -0.23896400
Mo       9.89898613      10.06200269      14.77784774       0.05623675      -0.05950633       1.43645199      -0.06511351       0.02936255       0.24669406
Mo      11.98725307      11.60242845      14.75013731      -0.00783630       0.17141354       1.33968529       0.00317471       0.08367184       0.26327548
Mo      12.03146311      10.06485545      17.01030818       0.02021583       0.07486053       1.22694038       0.03556732       0.06525872       0.19930904
Mo       9.83740908      11.60854307      17.01590163      -0.05624103       0.06237630       1.07322317      -0.00726892       0.04868984       0.13320758
Mo       9.86829343      10.08235779      19.33876618       0.01383053       0.06530396       0.62820573      -0.02859044       0.03019739       0.04886838
Mo      12.05192831      11.61754652      19.31669931       0.02629553      -0.00157282       0.54826774      -0.04104583       0.00684683       0.06797295
Mo      12.07718474      10.09872801      21.63545672       0.08627414       0.07992303      -0.17957039      -0.08717427      -0.01348906      -0.06858784
Mo       9.88861524      11.63749479      21.63987917      -0.02823591       0.08882569      -0.06381876      -0.08641653       0.00790202      -0.04292269
Mo       9.91105417      10.10331888      23.98968303       0.07732660       0.04449191      -0.90760085      -0.05288703       0.00246480      -0.18260282