385
Lattice="18.6092 0.0 0.0 0.0 20.6648 0.0 0.0 0.0 40.5709" Properties=species:S:1:pos:R:3:momenta:R:3:forces:R:3 energy=-495983.09375 stress="-0.006605661939829588 -0.0015397092793136835 0.00044223194709047675 -0.0015397092793136835 -0.0015625434461981058 0.0011227134382352233 0.00044223194709047675 0.0011227134382352233 0.004193506203591824" free_energy=-495983.09375 pbc="T T T"
Mo       1.30299267      -0.00424483      19.31386406       0.31138904       2.94055571       2.04904844       0.15373069      -0.16909850      -0.27551711
Mo       3.66498950       4.35191951      17.77747035      -0.96688718      -0.67038099       1.30887706       0.73976707      -0.54263115      -0.26885796
Mo       1.35099293       2.62973304      18.04777295      -1.43389602       5.50438657       0.64176601       0.47754222       0.13185513      -1.46749341
Mo       3.70760660       1.69677846      19.28139644       0.20522595       3.83338569      -1.14939550      -0.16484344      -0.48738444       0.96548057
Mo       1.12182684       2.52552328      14.41728194       1.71437634      -1.51292848      -1.96685259       2.52101302      -0.25801528       1.05150354
Mo       3.63777618       1.70383791      16.46610346       6.83972320       0.50501880      -0.55981230       0.82623923       1.00117075      -1.11038089
Mo       1.26465045       0.24539420      16.25020387      -5.78165777      -1.66613641      -2.91061306       0.06681032      -1.25555503      -0.86455530
Mo       3.58497774       4.34072411      14.75152235      -0.15173338      -5.83427923       0.25372846       0.05567312      -0.43685690       1.36192954
C        2.52530429       3.33337197      19.60227885       1.80473826       0.21619581      -0.80021250       1.00844991       1.55579352      -1.76988256
C        0.19386259       1.06952798      17.77398684      -0.37419543       1.32631297       0.01643565      -0.38784331      -1.51136458       1.08492744
C        2.81666876       0.84497246      14.78137096      -0.13025541      -0.96491485       0.78193462      -1.83082426       1.86425650      -0.33522382
C        0.47324269       3.36253408      16.18393063       0.38931183      -2.05497832      -2.57243188      -2.22196674      -0.85512781      -0.06436790
Mo       1.43053075       0.06345842      25.30225601      -0.50287353       4.40060479      -3.27872845       0.46469396      -0.40538666       0.97185707
Mo       3.51843947       4.35452078      23.71909340      -0.94530205      -3.41556555      -0.67487582       2.09492040      -0.96839213       0.51752436
Mo       1.22840266       2.56869472      23.92539547      -2.17930383      -1.19575304      -2.45929554       0.85278809      -0.09499626      -0.14258069
Mo       3.54894310       1.53436419      25.14930615      -2.00960909       2.14342236      -1.75811346      -1.16444778       2.56104326       1.25363803
Mo       1.24669956       2.46492674      20.87867837      -0.40855392      -6.69552687      -1.03317658       0.13006927      -0.15939449       1.46961749
Mo       3.79612348       1.67483502      22.30622308       5.64842505      -0.60448999      -0.59134320      -0.77473581       0.97589576       0.07170343
Mo       1.47288121      -0.10297688      22.40162973       2.62040579       2.04949224       5.80514510      -1.72423387       0.01213361       1.14536548
Mo       3.80296153       4.19675452      20.92587064       2.34962990      -0.62447238       0.57945485       0.04156853       0.74351734       0.20643620
C        2.60244621       3.38257331      25.42062767       0.22128399      -0.32241714       0.64886889      -0.21674615      -0.73887455      -0.95525259
C        0.15861482       0.79055918      24.00436731       1.39377345       0.92787814       0.40488982      -0.13429959       1.22000754      -0.43644726
C        2.48034665       0.78478045      20.79872797      -0.51955337      -1.46031019       0.62664426      -0.03838219       1.71369290       0.32327926
C        0.04898859       3.39485981      22.38011603      -0.19374789       0.88510953       0.75107655       1.38040876      -0.06311468      -1.17399621
Mo       1.35478346       5.07574198      19.35487072       6.05850053      -2.18044818       2.52675657       0.20179993       0.75099909       0.03155717
Mo       3.80262734       9.33547310      17.68659092      -2.52506452       3.88332553      -2.96448981      -1.84612119      -0.53109777       1.11795413
Mo       1.37465970       7.69082798      17.83333335      -0.95564636      -2.50916503       0.79330399       1.19694257       0.12546074       0.24568589
Mo       3.79232569       6.84436858      19.48152282       0.18144509       1.81168575      -1.22905010      -0.43514150       0.73591626      -1.39624643
Mo       1.55418323       7.91084024      14.94038359      -1.10602192       0.68698636       7.67821152      -1.11192107      -0.66408318      -0.47051308
Mo       3.77048638       6.90807325      16.15776872      -0.62111872      -0.45761564       1.65882946       1.33822954      -0.34033278       1.66477287
Mo       1.43117834       5.02720244      16.43305631       0.05236021      -1.02377521      -4.79035328       0.24975845       1.67488742       0.13430259
Mo       3.58044122       9.55444341      14.80140787      -2.23491875       5.49559619      -1.10595843       1.20498180       0.82803416       1.49488831
C        2.47716865       8.64764977      19.43248327      -2.25063990       0.21581156      -1.12000274       2.98537970      -3.79721928      -0.45400134
C        0.18688262       6.06656257      17.78073931       0.53487957       1.58576823      -1.31700613       0.24925804      -1.29568315       1.22157717
C        2.43684345       6.03183052      14.96214915       0.57666434       0.78617793       0.80746096      -0.20370808       0.18422177      -1.75266910
C        0.13476238       8.57529530      16.47509617       0.10995812      -0.92777139      -1.13639704       0.75092912      -0.62069643      -2.02888966
Mo       1.38267098       5.02827657      25.28257528       4.35851613      -3.64108946      -2.76273476       0.91932768       0.21774253       1.01030767
Mo       3.70135312       9.39662224      23.79958972       1.14480077       3.18705434       3.41067849      -0.47103328      -0.75968152       0.90472466
Mo       1.40438009       7.81952881      23.91643824       1.58002406      -0.28125949       1.32059804      -0.90531027      -2.10069776      -0.27997804
Mo       3.42306274       6.79515542      25.49104674       0.62994146      -4.69070119       1.30179825       0.38082916      -0.35784626      -0.16173300
Mo       1.39524797       7.63521032      20.88806984      -2.87009683      -1.89627668      -3.06430756      -0.73388708       0.83059835      -0.23695873
Mo       3.71752008       6.82768866      22.36029344       1.42838027      -1.82667863       0.70188775       0.47187924       0.52358937       1.17417741
Mo       1.44465556       5.16021018      22.40622645       7.66997904       0.50902462      -1.36872912      -1.44518054      -0.75259912       0.99193668
Mo       3.86984945       9.45425665      20.91158091      -4.33715203       1.66527227       1.99650094      -2.20787358       0.05958975      -0.84061205
C        2.46163024       8.53639822      25.59767204       0.32939802       0.79617974       1.30240566       0.63374043      -0.04687555      -0.56497842
C        0.12396738       6.10015111      23.96808130      -0.49226879      -0.41549751      -0.57623160       1.22657895      -0.74704337      -0.13990179
C        2.52702640       5.94931970      20.90085570      -0.79175435      -0.41410367       0.23772453       0.95889419      -0.56248760      -1.00207889
C        0.20082982       8.45903903      22.35126647      -0.32821140      -1.24524954      -0.91769817      -1.01861620       0.85195076      -0.15145321
Mo       1.56766839      10.25268126      19.22663218      -0.81036144       2.06901456       4.38770897      -3.26001978       2.79688311       0.26298141
Mo       3.67820340      14.52925095      17.93073119       6.62400168      -0.86771076      -0.20165402      -0.86453295      -0.24869314       0.09724776
Mo       1.35467358      12.96842921      17.82399798       4.77045522      -3.82121074       3.40480077      -0.23112348      -1.21445978      -0.26055503
Mo       3.72800716      11.92922827      19.33890147      -0.23384650       0.38961287      -1.81678632      -1.28742552       1.44488263       1.27600360
Mo       1.38355711      12.96284673      14.87071815      -3.18918809       5.24554718      -1.12224959      -0.39186919      -1.29270935       1.37293172
Mo       3.77129022      12.01047472      16.49084445      -3.04383633       3.72725445      -5.60560044      -2.22834682      -1.93076706      -0.55147541
Mo       1.34057943      10.28471383      16.33466440      -5.07056419       2.91748366       0.13693112      -0.16837297       1.58316624       0.97765130
Mo       3.41251325      14.45268371      14.85474937      -2.39947635      -1.08038286      -0.14103391       0.70324808       0.80088353      -0.64034480
C        2.40012642      13.61768023      19.51688646      -1.33812811      -0.81584224       1.12149357       1.40145969       0.65646416      -1.00870514
C        0.06062205      11.25840041      17.87610028      -0.08207780      -1.26266056       0.12229088       1.63139606      -1.31556463       0.64399135
C        2.57627956      11.31483276      14.85557624       1.22859650      -0.17107580       0.48798480      -0.48992988       0.02469540       0.23239711
C        0.02961617      13.73543291      16.45173944       0.79814180      -0.36597856       0.48056011       1.19113064       1.94385958      -0.99917388
Mo       1.51949077      10.28126908      25.32831615       2.45393847      -1.09780110       2.65570168      -0.19897737      -0.25685948      -0.37591290
Mo       3.68379976      14.49509714      24.13399525       0.86628254       3.14051682      -0.24962158      -0.08079163       0.44722733      -1.06955743
Mo       1.28333280      12.95839218      24.12556536      -1.69617071       4.73947064       0.74054580       0.04325927      -0.75910008      -1.11522841
Mo       3.66770302      12.00035133      25.52807478       1.32022846      -1.29413359       0.66205799      -0.98840874      -0.94350260      -0.56211048
Mo       1.42428692      12.75697243      21.03751500      -0.54947511      -1.07850457       1.48103719      -0.92894578       0.21415877       0.29763567
Mo       3.67545401      12.00610350      22.71180989      -0.20835195      -0.50764410       0.03226044      -1.20024073      -0.93888015      -1.08546138
Mo       1.32040043      10.16836246      22.51468423       0.21283286       4.99247760      -0.65580896       1.49084020       1.42809284      -0.87638295
Mo       3.59909469      14.67734941      20.87197092       2.08155978       1.44436692       0.44949732       0.29494676      -0.35440332       0.54120278
C        2.54962652      13.66769766      25.67797779       1.50686426       0.70862913       0.72950118      -0.01779694      -0.26299128       0.43482918
C        0.17962154      11.21018119      23.95040601      -0.14076357      -0.15924203      -0.32517660      -0.52504498      -0.90098453       1.39021754
C        2.58782883      11.04708820      20.93630380       0.07350801      -0.33209858      -0.50599726      -0.39387918       0.54782248       0.59223270
C        0.20220821      13.77877372      22.48362688       1.51109384      -0.48508505      -0.24247991      -0.04611201      -0.98619437      -0.00969341
Mo       1.20189019      15.29210708      19.29770834      -1.05827313       1.35592148      -8.00758773       1.53025401       1.78925407       1.62719524
Mo       3.58252840      19.88907172      17.63009989       1.52492880      -0.37590302      -3.42392187       0.72063404      -0.37903211       1.14460516
Mo       1.29445785      18.33692846      17.56513211       0.90011262       1.05844698      -6.71148082       0.94450271      -1.76689029       1.99642038
Mo       3.59504283      17.18644696      19.28000049       1.50039223       3.18004442      -1.69457544      -0.14426036       0.57782358       0.46715993
Mo       1.51085057      18.06120062      14.89075957       2.54488550       2.12318608      -0.95060825       0.30726227      -0.30154866      -0.21307173
Mo       3.59379045      17.37089323      16.30327933      -3.88623615      -0.05519903       5.70383869       0.51938391      -0.69471371       0.28843361
Mo       1.36361817      15.57382012      16.24719214      -2.17365022       3.23505656      -2.08315104      -1.56363642      -0.82188606       0.44818819
Mo       3.63350768      19.80094169      14.82249815      -0.55785409       1.12804077       2.06451760      -0.03250158      -0.00846466      -0.33462524
C        2.53817841      19.00438402      19.27315297       1.08923872      -1.25337693      -0.19661699      -0.77525914      -0.88741446      -0.04186153
C        0.18570250      16.46418961      17.89208120      -1.37757821      -0.97338688      -0.15319730       0.59764510      -0.07304306      -2.34449410
C        2.86519288      16.34428677      14.69790313       0.67375072      -1.90690404      -2.03360493      -1.17049539      -0.00145248      -0.26383013
C        0.07027146      19.09707713      16.20328206       0.46616842      -0.02734795      -1.80277850      -0.37191755       0.45476699      -0.47972834
Mo       1.59599325      15.47788933      25.47587135      -3.23609410       0.32128234       3.53537736      -0.54734123      -0.11389029      -0.41249233
Mo       3.75051949      19.83435908      23.83256586       1.05481548       6.74858640      -3.96704361      -0.75734091      -1.16253161      -0.21998736
Mo       1.39494224      18.02652051      24.14782524      -3.11718241      -5.36435584      -2.24236483      -0.36081249       0.87425017      -1.26242805
Mo       3.59748056      17.20592543      25.50317864       5.37981743       3.38922545       0.56327903      -2.04833841       1.21812439       2.31239939
Mo       1.28187372      17.99468438      20.77610044       0.34408795       0.78854883      -1.25939404      -0.23946038       0.86356425       0.45578098
Mo       3.57760578      17.09983093      22.62086816       2.78727035       2.34251899      -1.83386941       0.09328237       0.87348312      -0.54997814
Mo       1.21259470      15.52487340      22.47591389       0.50053632      -0.98347145       1.58989096       2.28854322       0.42493284       0.17484026
Mo       3.52515636      19.77605069      20.94230240       0.24701739       5.19259432       3.14962704       2.14270878      -1.48737085      -1.10840237
C        2.75767863      19.12637339      25.58206811      -0.52136443      -0.70497392      -1.09736019      -0.90049273       0.10396439       0.39568523
C        0.13806117      16.29213333      24.11161823      -1.37851622      -1.00439034      -1.42573710       1.30241227       0.92116922      -0.22812286
C        2.51005472      16.40991223      20.91921114       0.27953315       0.19156928       1.18084425      -0.74607170      -1.17994249      -0.54792571
C        0.29963093      18.86758007      22.47531734      -0.36611106      -0.26394581       1.23412953      -0.45991653       0.09808737       0.19372624
Mo       5.96704523      -0.11623123      19.53131043      -3.02894020      -3.37254872      -7.61286542      -1.35747623       1.20782208      -2.33305955
Mo       8.40358044       4.25281543      17.75317845      -1.18051000      -0.93292009      -2.38077088      -0.34699500       0.51676697       1.08473551
Mo       6.02248726       2.61864999      17.82117662      -2.06698251      -6.46698383       1.72065678       0.08279193      -0.48809004      -0.97593004
Mo       8.40629991       1.67333291      19.39361171      -0.36433489       4.73867273       1.61594339      -1.39062381       0.77421093       0.09971631
Mo       6.22129935       2.59630308      14.78364650      -0.97547540      -2.36039439       1.48293019      -0.28703731      -0.49455023      -0.38927341
Mo       8.30447582       1.67502173      16.30328696       4.64002256      -2.58767048      -2.88831651       0.53985626       0.14218526      -0.27687287
Mo       5.97846613      -0.14656206      16.31224716      -0.81069360       2.63894038      -1.30171367       2.09684205       2.52737093       0.25877327
Mo       8.29249985       4.17218876      15.01100784      -3.83512836       1.62431653       3.01557952      -0.11595967      -0.09455149      -0.74405253
C        7.12170761       3.40738057      19.32405309       0.00810102       1.08139454       0.26202987       1.90860212      -0.23320162      -0.24900483
C        5.01264364       0.85693556      17.84279329      -0.70043935       2.08209989       2.08230527      -0.68443435      -0.96707934       0.19314200
C        7.10236980       0.80693124      14.65432127       0.64278874      -1.10838314       0.87296420      -0.23196265       0.46630830       0.42709938
C        5.05936606       3.40680705      16.17910765      -1.05305346      -0.96385642      -0.43293293      -2.51192522       1.26169646       0.56292647
Mo       5.93049892      -0.10118742      25.29398534       1.25948120      -0.18632272      -0.75866295       1.81981599      -0.30161732       0.37117702
Mo       8.40456562       4.32599662      23.95091855       2.14374357      -0.55658777      -2.12200044      -0.50698900      -0.32033026       0.53206873
Mo       6.17948050       2.53749809      24.02445720       0.54429376      -2.12220726      -1.91625564      -0.98261166       0.06167114      -0.83774197
Mo       8.08168391       1.63086720      25.47948803      -0.23962162      -5.03854330       4.61954027       0.21756454       0.66391450      -1.54548633
Mo       6.16590316       2.57239243      20.91180413       2.17222731      -1.81326961       2.36155941      -1.46693683      -0.36625603       0.60331637
Mo       8.39896021       1.60039527      22.44958442      -0.57932540       2.88648078      -0.40301242      -1.56321371       1.03859806      -0.46266568
Mo       6.03418698      -0.06621854      22.22276236       3.13172148       0.51617513       0.19904293      -0.44088086      -0.62097907       1.96388173
Mo       8.22521999       4.28145107      20.88425226       3.65979884      -1.25493761       2.01492831       2.98234034      -1.37188876       0.56540334
C        7.17944046       3.48338312      25.60452875       0.12030077      -0.30885113       0.94702877       0.44058037      -0.06054894      -0.26786858
C        4.93756326       0.91163946      23.82435450      -0.15605277      -0.19122380      -0.44314257       0.21443750      -0.68143642      -0.51099110
C        7.23901829       0.78269646      20.79291240      -0.71381357      -1.99489638      -1.61858596       0.63773644       0.26070896       0.96973586
C        5.11338455       3.35422526      22.54888194       2.04811773      -0.91820435      -0.14084351      -1.82833982       1.14442992      -1.44647074
Mo       6.12468389       5.14238576      19.21261572      -3.48620581       2.16657998       1.39646436      -0.88555032       1.10668063       0.96868682
Mo       8.35687112       9.50131966      17.68897171      -3.31913428       6.80502981      -0.90303521      -0.53305840      -0.50764692       0.70281279
Mo       6.28303435       7.60087690      17.66461753       1.79430949      -1.04446174       0.95372078      -1.05065882       1.26485419       0.64578414
Mo       8.56510250       6.91130707      19.33064534       0.22700909      -1.01564748      -3.21432290      -1.71725249      -0.67417318       0.77024180
Mo       6.20697644       7.81930857      14.67642878       1.22196570       1.58726490      -4.82518196      -0.86035949      -0.53912759       1.58997464
Mo       8.44762763       6.86088935      16.20748429       0.06637537       1.59680206      -4.67388950      -0.23726511      -0.15679492       0.70086974
Mo       6.20070194       5.26042942      16.34851656       0.87582871       1.03767308       3.60314635      -1.34703946      -1.43592989      -0.87822497
Mo       8.31410153       9.54516690      14.69265701      -1.23983668       0.47412237      -1.70109426      -0.15034622       1.17953420       0.98312652
C        7.38536265       8.56076623      19.43252260      -1.24310435       1.53455244      -1.26174806      -0.44263989      -0.02451380      -1.05278373
C        4.86694083       6.05246039      17.81514832      -0.00687958      -1.43878183       0.79417806      -0.37878558       0.22815517      -0.05076644
C        7.31927362       5.90098460      14.57480607      -0.90139886       0.87234214       0.67092702      -0.68111587       1.82191193      -0.02550071
C        4.98699802       8.69130039      16.17715117       0.50757254      -0.17013285       0.38454289       0.32343197      -1.57761145      -0.71462548
Mo       6.08431358       5.18635986      25.46739795       0.62277527       2.97805471      -1.33240532       0.51622236      -0.88087666      -0.05043715
Mo       8.29818414       9.24371580      23.97520419      -5.86643259      -2.66526145       3.80908786      -0.42302245       0.45787513      -0.01381168
Mo       5.80272833       7.76820323      24.12040192       2.54445910       7.18549372       1.88589501       1.91181958       0.18466689      -0.49051890
Mo       8.18511593       6.68364762      25.48641241      -3.73937080       3.93874202       2.61837435       0.05434303       0.93385643      -1.11634386
Mo       6.03370850       7.61197578      20.70793932       1.20670158       2.58164950       0.37574873       0.58674753      -0.18323031       0.52037549
Mo       8.35302718       6.80495012      22.50291874      -2.19050167      -0.54225088       0.58300027      -0.45572761       0.24758670      -0.46926731
Mo       6.16422740       5.18723018      22.54657096      -5.99049480       0.17892486       3.45882745      -1.72123492      -0.95395350       0.98404080
Mo       8.29870871       9.56289597      21.04165865      -3.70119198      -1.50878870       0.88054351       1.59178066      -1.85705066      -0.76926458
C        7.26421618       8.33099612      25.72460120       0.09646889      -1.65854263       1.53925942      -0.62209356       0.94564718      -0.83139426
C        4.80979639       6.04286304      24.09207900      -0.57150199      -0.81400149      -1.34716346      -1.03813195      -1.28662157      -0.67844766
C        7.22731490       5.92834367      20.91667464      -2.52091235      -0.78015659       0.96384204      -0.58110046       1.91572773      -1.35259128
C        5.03192838       8.48800357      22.28159636       0.71688152       0.80961259       0.40950623      -0.88136917      -0.95508993       1.51413202
Mo       6.17758108      10.21808655      19.38744647       0.86096431       0.42103856      -3.79672331      -1.72070765      -0.38366175      -0.80175316
Mo       8.17267139      14.70752393      17.86997765      -0.11284554      -1.46132331       1.27908784      -1.57688653      -3.10726786       0.12130845
Mo       6.04072783      12.65840866      17.89699183       1.70189747       1.99373186       4.09112145       0.17181763       1.66584659      -0.90511268
Mo       8.28177853      12.07920434      19.39054244       0.18036274      -4.45254711       3.55024835       0.66100615       0.03636305      -0.41140509
Mo       6.02701746      13.00623280      14.90229555      -2.73607498      -1.78393859       0.82539073       0.92637444      -1.07431746      -0.05238300
Mo       8.40535123      12.08629015      16.32757727       1.56083749       0.33469303      -0.06573641      -1.06722987      -1.45464897       0.95495021
Mo       5.98954584      10.41896985      16.27925469       2.88975205      -3.83370014       1.06387885       1.43099761      -0.09447983      -0.21160322
Mo       8.28655031      14.56041355      14.84576905       0.76541878       3.67151194       1.25895945      -1.06140494       0.17826778       0.39647895
C        6.96857406      13.67999808      19.40896766      -0.64732301       1.64040966      -1.43122291       0.83428115       0.58790499       0.85549808
C        4.83916986      10.97168184      18.00384952       0.90303192      -0.21638785      -0.48371593       1.07411551       0.58368325      -1.34099853
C        7.23442785      11.37164035      14.81574917      -0.31675791       0.16158498       1.03716937      -0.38546371      -0.82746631      -0.37047699
C        4.75497647      13.66907076      16.36403501      -1.85478851      -1.03739959      -0.48763334       0.76476097       1.23703408      -0.05374230
Mo       6.38129982      10.21160221      25.38880346       0.27470271       2.60443674      -1.86537308      -0.17426756      -0.53470552       0.97611064
Mo       8.22213640      14.60232957      24.08681253       8.36526367      -3.16556435       0.02556906       0.27760184       0.09981352      -1.02267551
Mo       5.92855733      12.79062648      23.99163347      -3.03091297      -1.88945477      -0.23736327       1.12319350       0.46418047       0.74942517
Mo       8.21904331      11.96574158      25.47057006      -3.74050859      -0.86101204       0.14655590      -0.03280470      -0.13394973       0.19951105
Mo       5.72367635      12.72755847      20.93345616      -0.22009042       0.65287149       1.23830698       2.42358732       0.34762084      -1.12586820
Mo       8.23353209      12.00171864      22.48436285      -3.05430204       3.32044999       0.86721894      -0.37196061       0.31148767       0.07343869
Mo       6.01149877      10.17781198      22.49339878      -1.35158553       3.22718743       2.37098311       1.83918595       1.49544191      -0.61213899
Mo       8.30065103      14.48500970      20.93789981       1.04792674       1.39938749      -5.08585003      -1.71965694       0.88726807      -0.05288356
C        7.26583028      13.69744389      25.64815220       0.27106317      -1.13200107      -1.20110334      -1.28101599       0.07953215       0.02228624
C        4.99685040      10.92782109      24.10193427      -0.58359393      -0.03999442      -0.94193529      -1.06162047       1.45572770       0.50567400
C        7.14081722      11.19640946      20.84545067      -0.40284313       0.70498365       1.10581836      -0.50030619       0.29246539       1.64747834
C        4.79408814      13.70755775      22.45976905      -0.10812126       0.10446967       0.16847524      -1.21902132      -0.13935778       0.30309743
Mo       5.89386305      15.45054503      19.30462694      -1.26968881      -1.52953662       0.14487256      -0.11092392      -0.33062643       0.64908361
Mo       8.20980921      19.81449322      17.82119035      -1.82135914       0.97662347       2.44856338      -1.08201182      -1.37287927      -0.10496152
Mo       5.91173838      18.09421686      17.77603021      -1.70035214      -0.35533133      -4.86182801       0.86544389      -1.11908364       0.18520316
Mo       8.27009498      17.01321223      19.52762358       0.31241071       1.04360066       2.13868746      -0.09626077       1.98591387      -0.54037750
Mo       6.28732500      17.91338052      14.65377027       0.28768398      -0.22021783       5.75235737      -2.31822348       1.72412968       0.49861118
Mo       8.31592181      17.06526580      16.38175255       0.18237610       0.94027275      -2.75008419      -2.23333073       0.78746259      -1.65057600
Mo       5.90262317      15.40691258      16.37025274      -3.28610261       3.10592579       1.19510806       0.88879895       0.27775809       0.05909004
Mo       8.06525374      19.76688033      14.75927082      -2.39665089      -0.83417669       0.97548279       0.09849015      -0.53161097       0.53537869
C        7.03328278      18.86797814      19.41959771      -1.38163984      -0.15566889       0.63045560       2.09746408      -0.81809008      -1.69646096
C        4.65372458      16.36192997      17.74419320       0.12112171      -0.71395925      -1.30244726       1.03889072      -0.15322590       0.56317377
C        7.00125906      16.15503540      14.66623248      -0.39196155      -2.07985261      -1.37684402       1.09072995      -0.78617346       0.85106808
C        4.96191757      18.89409991      16.10208809       1.32100899       0.37588826       0.85099545      -0.68410289      -1.18183982       0.16734691
Mo       6.11494114      15.40250021      25.49954282       2.31865279      -1.26528822      -1.21769015      -0.04889494       0.81132555       0.57704973
Mo       8.10569535      19.81820572      23.67288586      -1.20485423       0.61236205      -6.32044990       1.58644176      -0.53586215       1.39402449
Mo       5.97184715      18.03133197      23.84176495       0.60955692      -2.26688909      -4.13222902      -0.57795221      -0.01319392       0.42989442
Mo       8.21519520      17.25256483      25.40363634       2.95099257      -4.92558158      -1.11773525      -0.57550693       0.24021387       0.50483173
Mo       5.87581716      17.97046387      20.70626045      -2.09522185       3.93323551       1.88045048      -1.16873741      -0.67662299       2.39123201
Mo       8.11678435      17.34643423      22.50002323     -10.10038157      -1.85909909       1.61173749       0.09377186      -2.08794117      -0.37813249
Mo       5.91595296      15.30325045      22.64691450       0.27605714      -3.67579300       0.35435869       1.35173166       2.31943035      -0.30576691
Mo       8.42772891      19.65920860      20.79831208      -2.52989569      -2.97969156      -2.10218261      -1.66972017       1.48009467      -0.32103315
C        7.15160122      18.97741662      25.40438100      -0.76319515       0.45362232       0.28116184       0.07974790      -0.59762424      -0.42042369