541
Lattice="28.1778 0.0 0.0 4.672575348 17.3445327417 0.0 0.0 0.0 41.7172" Properties=species:S:1:pos:R:3:momenta:R:3 energy=-697004.9375 stress="0.008194965310394764 -0.0035268529318273067 0.00027853541541844606 -0.0035268529318273067 0.00048358627827838063 0.00032189794001169503 0.00027853541541844606 0.00032189794001169503 0.0033220790792256594" free_energy=-697004.9375 pbc="T T T"
Mo      11.64975927      17.16797530      15.11987547       4.51313300      -4.64361877       1.33445931
Mo       4.11103561       0.51276363      15.09381841       1.95397358      -3.04382537      -1.20071335
C        9.95838910      16.02664474      14.78447912       0.88821509      -0.57584146      -1.25468550
Mo       3.11015499       0.82562374      17.51766531       1.15033099      -1.04117099       3.29210401
Mo       9.85870720      16.22108765      17.10725085       2.09272560       0.16058327       2.44851648
C       11.65007368      17.21666172      17.20195388       0.72291473      -0.16755025      -0.70684709
Mo       8.59919077      16.40674562      19.74489902      -4.17316579       2.15201029       0.32321356
Mo       6.76375294       0.03811389      19.39937648      -3.78109761      -3.65568138      -0.10097750
C        2.92211220       0.99341810      19.69845068       0.23822545      -0.04879217      -0.32141573
Mo       5.65870887       0.24249749      22.07662063      -1.70093912       0.20232377      -1.86295628
Mo       2.82126696       1.02089799      21.73225618       3.01801820       0.27826631       2.91216994
C        8.56921188      16.50082522      21.90836407       0.43215357      -0.06898577       0.73925360
Mo      11.25592257      15.82957721      24.62137079      -4.10959665      -2.13856262      -0.51896694
Mo       8.42286093      16.59832704      23.89168539       1.93659220      -3.70439155       1.93256454
C        5.60058185       0.31652905      24.22605681       0.56846779      -0.43852961       2.17766595
Mo      12.99160946      16.95553838      26.77729066       2.00365807       2.54738025      -2.17779760
Mo       5.56306914       0.26892441      26.31906895      -0.09765227       2.06589358       2.29176696
C       11.09424683      15.86582407      26.72713886       0.07152587       0.00887454       0.07836016
Mo       7.74542575       2.89989605      15.15962163      -2.10548114      -1.96536955      -4.61345391
Mo       4.89029928       3.48461127      15.10213614       5.18049750      -0.72110600       0.11077424
C        5.93720329       1.61515701      14.96595834       1.82599097       0.49796033       1.04132172
Mo       3.82020460       3.99434082      17.43470859      -5.23062715       0.89434938       3.42544509
Mo       5.85379104       1.85773405      17.20974040       0.49779835      -1.21789168      -0.07207815
C        7.69763636       2.75378464      17.24112546      -0.72890557       0.61491947      -0.79112952
Mo       4.70989424       1.95680366      19.91459897      -2.16399597      -2.38785199       4.19599332
Mo       7.59476751       2.94930919      19.35728077       1.27967539      -0.64713296       1.04562104
C        3.46686160       3.90515554      19.66545336      -0.93216175      -0.76190098       0.06955169
Mo       6.30777560       3.11576881      22.11778769      -0.51431090       2.58254659       0.28222010
Mo       3.54307988       4.17430519      21.81113251       0.90460515      -3.90492215      -1.55551913
C        4.56409061       2.13774258      22.02051250      -1.70060979      -0.81575084      -1.53193333
Mo       7.49754206       1.40587415      24.70189361       2.53881428      -4.11640302       2.27805063
Mo       4.46857846       2.15038932      24.33575406      -1.18335518       5.03123839       1.96808871
C        6.37107295       3.13934509      24.19806115       0.18000534       0.05660279      -2.27735578
Mo       9.12165564       2.49485678      26.74805949       3.26757785      -8.64753573       1.62450969
Mo       6.31636651       3.16188007      26.34813889       1.31990120       5.73202529       3.72200817
C        7.36144684       1.39285680      26.85394100      -0.78941973      -0.87718298       0.93745158
Mo       8.51443844       5.70982860      15.24136685       2.17534248      -0.71984320       0.66068901
Mo       5.58382883       6.41811988      15.18706046       3.19812358       3.61290293       1.77661078
C        6.74552325       4.70025246      14.78877010      -0.38049772      -0.12576805       0.01522486
Mo       4.73682429       6.87611786      17.53944225      -1.39064390       5.18254140       0.80680950
Mo       6.62368612       4.57001174      17.09212600       2.75014139       1.12172224       1.97419996
C        8.39216859       5.63663773      17.28663135      -0.23305123      -0.93204980      -0.66834484
Mo       5.42287896       5.00268807      19.91236583      -2.83308211      -1.75712430      -1.61407029
Mo       8.27682931       5.86187139      19.29771192       3.59831902       4.90241946       0.42030889
C        4.62270654       6.84469609      19.72619514      -0.14798007      -2.31611395      -0.03440708
Mo       7.00660777       6.12625844      22.07437958       0.35293616       1.10458171      -1.32743878
Mo       4.25751963       6.84121785      21.72816069      -3.04965365      -0.87491480       0.60623577
C        5.33785260       4.98612961      21.92432994      -0.98966595       1.54628853       1.46240968
Mo       8.21158143       4.09423525      24.34397356       0.87379901      -2.17457733       2.29819477
Mo       5.35605844       4.94304823      24.03873440      -0.51454068       1.07274717      -4.39562047
C        7.22645913       6.01788139      24.12846307      -0.60080786      -0.10821329       0.02469713
Mo       9.86757763       5.33975012      26.52720028       1.38875146       1.17991595      -1.59744062
Mo       6.98650848       5.99431884      26.19919251      -0.59443228      -2.42460976       5.12640445
C        7.97716143       4.34645125      26.72643931      -0.77423714      -0.34841501      -0.39629096
Mo       9.30945145       8.60909752      15.31662052       3.28944403      -3.35434931       2.52689290
Mo       6.45947917       9.20989930      15.01080411       1.77991634       3.80813217       3.72356431
C        7.46456569       7.45266733      15.07321314      -0.72110895      -1.27670670       1.66411745
Mo       5.49803553       9.68879176      17.69299107      -0.10620628      -0.93618395       5.88158984
Mo       7.28535603       7.58730898      17.17542108      -5.28156287      -0.41754156      -2.60594863
C        9.22513752       8.59915574      17.19375166      -1.43416338      -0.60015295      -0.52930183
Mo       6.36467726       7.85179229      19.93080073       5.41410275       2.48091648       0.52239771
Mo       9.13357792       8.78223998      19.45743574       1.29022858      -2.96393847      -2.20946825
C        5.31834161       9.71150567      19.65940401      -0.02292649      -0.10549001      -0.90685297
Mo       8.11772893       9.01237841      22.05416178       0.24262220       0.11989836       4.23576312
Mo       5.12245475       9.75495229      21.89214926       0.83504965       0.02186513      -2.14671667
C        6.24799586       7.94836090      21.94846909       2.16706322      -0.90423963       3.09498913
Mo       8.89129600       7.14434301      24.35317484      -3.11249735       1.35694709       0.76180088
Mo       5.80915866       7.93571237      24.03651422       0.91097431      -0.51012619       1.49635460
C        7.70527512       8.97187555      24.16851178      -0.35087057       1.68124691       0.28286095
Mo      10.33623753       8.22433175      26.65851512      -3.76086884      -4.77406427      -1.43233292
Mo       7.55662835       8.83835284      26.15356079      -6.03595458       1.90141955       0.61178371
C        8.73510076       7.17122881      26.64460875      -0.43295432       0.86852068      -1.47289465
Mo      10.14742030      11.44866982      15.12005242      -0.23735635      -7.23604967       0.97530160
Mo       7.24489392      12.02781313      14.98221568       2.31411299      -2.28501666       2.05543302
C        8.19030076      10.38100955      14.99871290      -1.80606401      -2.18027417      -0.21636360
Mo       6.34562169      12.56029751      17.53141299      -0.00135024       1.25794957       1.25216510
Mo       8.29309027      10.37372569      17.13530113      -1.26491599       1.01642182      -1.41510975
C        9.96688826      11.57445260      17.33026256       1.02986358      -1.50669371       0.10084225
Mo       7.08130651      10.93894270      19.92306140      -4.22774565       1.26340641      -3.51194192
Mo       9.86888300      11.42443437      19.28584559       2.68516167      -2.62500995      -1.58516779
C        5.88195308      12.61257132      19.64040685      -0.60357062       0.15164958      -0.14493621
Mo       8.75391949      11.89926111      22.22946303      -0.72019983      -1.20780559      -0.82754103
Mo       5.89688974      12.64108572      21.82150753      -2.68861073       2.05174852       6.15680351
C        7.09133037      10.75100530      22.01220722       0.13298780       1.69277897      -1.32849840
Mo       9.56592220      10.02877465      24.40487989      -0.88576036      -0.36095357      -2.94327310
Mo       6.82043075      10.92342571      24.16151707       2.16779288       1.50536025       4.49391969
C        8.54542924      11.97591246      24.44805392      -2.65851376      -0.92568009      -0.94130160
Mo      11.39824485      11.02587578      26.45369659      -4.43079869       1.61574698       1.37359210
Mo       8.55308336      11.90664437      26.31737690       1.73744663      -4.45800868       6.60047402
C        9.38232879       9.98659534      26.54681835      -0.07194104       0.04437628      -0.89488818
Mo      10.85496376      14.32457690      15.15912856       0.70398897       1.99507851       5.94050852
Mo       8.01865229      14.98268318      14.92949139      -2.46029983      -3.39369206      -1.44052499
C        9.16373645      13.30872881      14.88881510       0.21869310      -0.49421146       0.43437047
Mo       7.20901645      15.40834084      17.33843708      -4.45188654       2.71054858      -1.83472391
Mo       8.86791517      13.30106205      16.89035808      -0.96445772      -0.28835366      -0.68058878
C       10.80285726      14.34591390      17.18992005       1.97282711       1.59585755      -0.27517901
Mo       7.72037651      13.74395343      19.77753750      -0.45810672       1.58285568      -1.52847879
Mo      10.64906463      14.45668117      19.31317168      -0.51318641      -2.07216961      -0.03539833
C        6.74262165      15.59709481      19.70507011       0.78415920       0.72096624      -1.01871885
Mo       9.53804958      14.58865661      22.15503151       7.13233173       3.91729675      -1.07252220
Mo       6.45558816      15.56165202      21.76436041      -6.83739485      -0.29129812      -1.46199007
C        7.69913746      13.68705515      21.88490130      -0.07739822      -1.87789252       0.27405083
Mo      10.58737761      12.87524542      24.44530002       0.38272671      -3.08766855       8.45543153
Mo       7.51605280      13.75173907      24.06189451       2.35166980       1.67517453      -1.53155293
C        9.53616211      14.69231252      24.14093874       0.20305638      -0.57203020      -0.50889137
Mo      12.03888324      13.99757978      26.71388964       0.51000591       2.29791605      -3.65021087
Mo       9.32064608      14.73039147      26.18659952      -1.04280255       3.08589907       3.27152653
C       10.43023890      12.91617543      26.73063700       1.99550580      -0.82360321      -0.25555879
Mo      17.50068824      17.19837520      15.12631273      -3.91282467      -2.24754361      -4.76142736
Mo       9.83490784       0.61800610      15.07678134       0.32662426      -0.03538269       2.03854689
C       15.51515398      16.27535878      14.82364713       1.06680833       1.45664377       1.08578773
Mo       8.68167008       0.99650802      17.56823427       1.80649072      -4.46149149       2.22291509
Mo      15.36163501      16.21899110      17.11263871      -1.90307971       0.87114372      -2.27726526
C       17.14099854      17.31014217      17.40669717       0.16938372       0.73311538       0.19927766
Mo      14.40984019      16.45693187      19.76352035      -5.12926936       0.52747677      -3.61000173
Mo      12.43755209       0.07375028      19.42686266      -3.63284814      -3.30997285      -4.82147676
C        8.40972682       1.06279837      19.61712045      -1.24256305      -0.29570045       1.44378578
Mo      11.26751356       0.25035048      22.05893813       2.43097122      -1.09112735       1.25741154
Mo       8.36892465       1.05569821      21.65665240       2.97869353       7.23319322      -0.99018349
C       14.11542596      16.62921889      21.70525628      -0.81391790       1.14428158       0.00154753
Mo      16.86482564      15.95312041      24.30126764       3.58823541       0.28862648      -2.81680218
Mo      13.88619760      16.64994662      23.98049801       1.74396459      -0.50485134      -2.61374427
C       11.05569104       0.36484550      24.19395367       0.00735949      -0.58799741      -1.70849583
Mo      18.45888104      16.85868463      26.42788957      -3.51577159      -5.37885810       7.94209359
Mo      10.97621180       0.45625118      26.26075561      -7.47299067       1.84567589       1.05673477
C       16.72887096      15.88950127      26.57218709      -0.12859382      -1.46474854      -0.16485021
Mo      13.42283726       2.93067937      15.35580009       0.30560065       0.17163774      -0.37424798
Mo      10.58300548       3.42362957      14.97368305      -1.21199189      -0.87695478      -2.81327511
C       11.76060321       1.65079176      14.93052935      -0.19248304       1.19350871      -0.29113568
Mo       9.42244099       3.91810505      17.58246914      -4.30450731       1.56238213       3.97362527
Mo      11.42607740       1.74384060      17.20727991      -4.06684392      -7.26857244       6.36401930
C       13.27674610       2.80579732      17.24309961      -0.79909828      -0.05059964      -0.90873455
Mo      10.37982205       2.00501469      19.91204268       4.24873311       1.27741870       5.69029565
Mo      13.12466039       2.83926813      19.29962338      -1.54295301       0.49289164       2.99469717
C        9.35651178       3.85454524      19.69337754       0.63817170      -0.63906093      -0.67013511
Mo      12.05683960       3.22510078      22.02147897      -0.19956100       0.97763746      -2.74317431
Mo       9.26864846       3.94443237      21.80260064      -2.21959985      -2.15231389       0.93658933
C       10.19396047       2.10894852      21.91407871       0.19106992      -1.16281017      -0.73738965
Mo      12.86341089       1.39022472      24.17272670      -0.74375435       3.97566991       5.90893039
Mo       9.98208877       2.25774630      24.04465531       0.51503458      -2.96364400       0.10807856
C       11.79509249       3.29405606      24.18939071       0.00660765      -1.56910549      -0.23724073
Mo      14.51322982       2.57068765      26.37529797      -0.48968395      -0.37213144      -4.10225290
Mo      11.84098073       3.31098544      26.18909798       1.88289631       1.45596245      -4.60503099
C       12.81298393       1.37061876      26.43711488      -1.62355435       0.82737404      -0.09580755
Mo      14.13933720       5.56937725      15.36326435      -2.06825566       1.37178544       3.66575775
Mo      11.32224008       6.52466068      15.18593662       0.29139655      -1.65273606      -0.10376617
C       12.25124548       4.75166748      15.00192154      -1.16189994      -1.10527217      -0.69484453
Mo      10.16092056       6.73529124      17.48455878       0.52592644       1.85072775       2.38805945
Mo      12.17010347       4.63839201      17.08099294      -2.50328973       2.67326486      -3.63643785
C       14.17050984       5.62298297      17.37924361       1.16221376       0.71740706       0.36103123
Mo      11.03528494       5.07601098      19.77131859       4.14842186       0.19015363      -0.77958152
Mo      13.76407628       5.71891203      19.47347202      -3.64456106      -0.69644642      -5.45147809
C        9.91006781       6.94370009      19.57129449       1.82833677       0.01828471      -0.36224269
Mo      12.84883977       6.16358544      22.07858504      -3.30432928       2.29500634      -0.41339588
Mo       9.99458432       6.86249227      21.71230824      -2.20690210      -3.35357030       1.16749000
C       10.93907177       5.01336969      21.89185335       0.82903684       1.78230599       0.75568825
Mo      13.73071236       4.14658246      24.25091368       1.27057033      -2.15154357      -4.61734946
Mo      10.89964631       5.14542761      24.10936943      -0.10684462      -1.65663409      -4.53136279
C       12.86215508       6.16073916      24.08013049       1.65359652      -1.61928679       0.39000483
Mo      15.34617853       5.33513306      26.46604418      -7.27440865       0.53740375      -1.93042272
Mo      12.54166657       6.14967195      26.25522559       4.14952184       2.66412489      -0.28479501
C       13.59629173       4.35392593      26.64286642      -1.47831965      -0.32755435       0.53779192
Mo      15.03360899       8.46334581      15.37604224      -1.34553158      -1.90686062      -0.93897853
Mo      12.20425164       9.24287139      14.95703561      -2.98051770      -1.83804251      -2.23343582
C       13.23699684       7.30457280      14.87078197       1.34133778      -0.17356926       0.15544748
Mo      11.01358666       9.65457000      17.41240532      -1.38927936      -3.24218975       0.46013405
Mo      12.99685728       7.52071561      17.22918768      -4.10154938      -1.10143008      -2.70600001
C       14.89203134       8.54301622      17.43914603      -0.21928533       0.53573653      -1.15986927
Mo      11.74800348       7.93052965      19.70011237       6.83845675       3.61562058      -2.78006486
Mo      14.85767996       8.56852631      19.55961275      -1.74150627       0.13464540      -1.56390837
C       11.04189215       9.77271774      19.60676765      -1.26202326      -1.39895311       0.09862768
Mo      13.67850024       8.92012076      22.03358976      -3.07654273      -2.32437764      -1.18179525
Mo      10.74170221       9.70240441      21.68037959       0.71491540      -3.86223548      -2.00513076
C       11.81126911       7.96971311      21.83622089      -0.42830589       0.29650044      -0.84217934
Mo      14.49600003       7.18513973      24.31812026       0.08857976       0.84974740      -0.46179012
Mo      11.51701952       8.03190018      24.00011598       4.07912052       2.07255746       0.70361486
C       13.50379297       9.22371941      24.23615628      -0.49281994       0.78728997      -1.96448863
Mo      16.10987390       8.16547192      26.64640657      -1.14698963       1.69196678       2.23976799
Mo      13.36020510       8.96041505      26.15256826       0.51801442       4.20655930       0.35408567
C       14.45219282       7.14505151      26.59610553       1.40024140       1.62507630      -0.89385069
Mo      15.82537295      11.36334280      15.22934880       0.71624773       2.78510959      -0.93235125
Mo      13.00292793      12.10724895      15.07301762      -5.40749346       1.41380334       0.58635097
C       14.02677704      10.27931963      14.93313073      -0.13954044       0.52017119      -0.85479100
Mo      11.76207913      12.48889972      17.44447292       2.46856245       1.28596223       4.87659106
Mo      13.83377555      10.37003335      17.08098419      -0.53866214      -0.19622268       1.15913318
C       15.66742814      11.55342047      17.07396852       0.97321541      -0.89764723       0.61685363
Mo      12.90334477      10.85108554      19.83134658      -3.50699356      -4.17829779      -1.05205993
Mo      15.48908214      11.52363864      19.19029893       4.02528688       0.65718202       0.86269470
C       11.97722331      12.48124538      19.54656077       2.11699998      -0.54245065      -0.39498077
Mo      14.50904217      11.86584541      22.02279437      -1.05425149       4.80294710       0.34181349
Mo      11.52069918      12.61770729      21.60322995       2.70482450       0.60696333      -3.39821341
C       12.55823321      10.77511901      21.87435067      -0.43344130      -0.94398578       1.23204875
Mo      15.34662908      10.03999822      24.39867980       7.34997595      -4.39454080      -1.75628129
Mo      12.43710439      10.90643420      24.04521173      -0.21114077       0.65916893      -3.43735517
C       14.32042853      11.93081188      24.15833242       0.59861567       0.39646224      -0.70972367
Mo      16.96573700      11.10390478      26.43671362      -1.44955588      -1.00507593       1.16080672
Mo      14.32819704      11.96130879      26.20476726      -4.19012872      -0.13142743       3.12081962
C       15.18697596       9.91802940      26.51369814      -0.42787104      -0.06712997      -1.60081764
Mo      16.48193958      14.37572695      15.19589197       3.31124222       1.22014567      -1.98584944
Mo      13.78403666      15.01087508      15.09850036      -5.18379239      -1.17274779      -0.01985208
C       14.74488143      13.28393136      14.89450109      -0.68124505       1.38096760      -1.36709855
Mo      12.71704585      15.47218729      17.50981324      -5.34384093      -0.20829921      -0.76845102
Mo      14.52556666      13.36598674      17.22391784       1.26844711       0.21473349      -1.87436128
C       16.44262328      14.26377750      17.29638761       0.87280166       0.37327311       1.50277591
Mo      13.57464336      13.64913047      19.75997448       0.49563327      -1.67474481      -0.52317405
Mo      16.37252670      14.48161455      19.41109583       2.00614382      -0.05837760       4.11877708
C       12.40106221      15.40122157      19.69857391      -0.20167469       1.63346715       0.41525445
Mo      15.17109609      14.75543064      21.94243393       0.78972885      -2.09182187       4.01419238
Mo      12.27339293      15.57271518      21.78234434       1.96145487       1.44869733       0.32356330
C       13.41701623      13.70951943      21.91912346       0.14238835       0.51555758      -0.75868444
Mo      16.06182635      13.01398432      24.25779014       2.95513667       4.19635044       3.36598590
Mo      13.22738771      13.83007541      24.11731781       3.78295114       0.00843445       1.75266260
C       15.13389309      14.78328024      24.10688674       0.53612232       1.59804550      -0.31699952
Mo      17.67539002      14.12857245      26.41866807       1.59906014       0.85900741      -1.48617613
Mo      14.82168071      14.78294077      26.16338713       0.57637766      -1.41223852      -1.28675039
C       15.99430849      13.18562290      26.69970724      -0.85917970      -0.57662896      -0.14360829
Mo      18.17487040       0.10427874      15.20769961       1.74249028      -0.58100518       3.44662595
Mo      15.49164999       0.84196339      15.08060646      -0.36359937       2.18522678       1.97240402
C       21.13988282      16.27344297      14.95359726       2.16121416      -0.02429440       0.51763977
Mo      14.41145668       1.02734874      17.40983261       1.08190477       6.77020436      -3.25819045
Mo      21.12411352      16.34728179      17.14610110       2.07128302      -0.86051962      -3.27132272
C       23.00071517      17.29135655      17.15801412      -1.48872992       0.54639534      -0.26310890
Mo      20.05432837      16.60156277      19.57040325      -5.29602580       2.90817465       3.77025551
Mo      22.74707060      17.29402730      19.41450449      -0.81281825       0.38754609      -0.81204884
C       14.18351815       1.01161340      19.52242740       0.25569513      -0.64440770       0.37970558
Mo      16.93867634       0.39580712      22.00850915      -0.30286979      -4.77590701       2.07743680
Mo      14.07569474       1.08734080      21.64134996       3.46867493      -0.45096239       0.92265963
C       19.93842761      16.60658143      21.78995610       0.75670507      -1.45530689      -1.26073873
Mo      22.57896470      15.82439626      24.23993026       0.87533343      -0.31291628      -0.71637857
Mo      19.57445268      16.56589361      23.92659333       1.13675883       0.23304394       0.31341121
C       16.73429665       0.40478189      24.10918995       0.48590234       0.60656031       1.42478918
Mo      24.25751529      17.04446221      26.31894592      -1.46121936      -1.42622916      -2.33070233
Mo      16.85254849       0.46398078      26.13135039      -1.26574443       3.08214245       0.07990395
C       22.43493300      15.92502704      26.59136930      -0.01792123       0.11503595      -0.05522455
Mo      19.04752875       3.06995371      15.10805005       4.49002204       6.55712191       4.54573766
Mo      16.23398481       3.67981789      15.15407095       5.23452039       6.30161727       2.45003125
C       17.35864912       2.06579657      15.09511663      -0.51388197       0.14829715      -0.16527975
Mo      15.17675353       3.85649807      17.40371182       2.71765875      -0.96312981       2.10815852
Mo      17.31187778       1.91250322      17.12413554       0.27759302       2.05352322      -2.94426158
C       19.00734997       2.88688492      17.09474972       0.87218652      -0.35825775       0.33048950
Mo      16.08673017       1.94983029      19.73778214      -0.62638008      -0.66931825      -0.20708517
Mo      18.83276038       2.78477670      19.31920365       1.01614206      -3.84756296       3.41130725
C       14.90349046       4.00615024      19.55986461       0.05719840      -0.67881589      -0.00268723
Mo      17.68984062       3.12629718      22.04324475      -1.33849889       2.68196753      -4.28020478
Mo      14.72164355       3.90951813      21.68026904       4.06513639      -2.57903982       4.63522007
C       15.90612570       2.14831543      21.76219526      -0.29038230       0.31393553      -0.07678243
Mo      18.73536068       1.57001867      24.31914363      -1.27948404      -3.92435326       5.47713668
Mo      15.69842406       2.13541358      23.98672398      -2.73943549      -2.96298938      -3.48695821
C       17.52095418       3.17508349      24.33131186       2.07947031       0.42836993      -2.85035887
Mo      20.43929052       2.46781051      26.42620387      -3.25543475      -2.72508119       6.40759696
Mo      17.52678366       3.28710867      26.29558461      -0.09706261       1.75016505       0.89444425
C       18.59625777       1.37115712      26.67107239       0.30686693       0.55105453       1.69085117
Mo      19.92323753       5.80065172      15.27525628      -0.59414035       2.99791114      -1.33891154
Mo      17.00486817       6.48113476      15.20857629      -3.92483730      -2.60122494       1.78795837
C       17.95883420       4.75633186      14.98345392      -0.17667907       1.81992273       1.93224494
Mo      15.82351702       6.81413586      17.50008862      -0.22504507      -1.31139387       0.75855366
Mo      17.93568796       4.78465305      17.11460722      -1.93590113      -2.78711555      -1.32414515
C       19.91354500       5.70236345      17.26746458       0.34318699      -1.00608922      -2.24506418
Mo      16.76233865       4.88841434      19.80827528      -2.55069430       0.03579018      -2.06905806
Mo      19.60236452       5.66196554      19.33812379      -3.31051556       6.47564222       0.49525755
C       15.82974129       6.77775948      19.61204198      -0.26763246       0.36142165       0.09570218
Mo      18.36873880       5.95217151      21.94560309       4.08678655       1.55367401      -1.02638663
Mo      15.61628429       6.70972078      21.73227440       1.55838301      -1.61424675      -0.59402899
C       16.56110765       4.88357422      21.84856570      -0.27931142       0.69796824       0.18641689
Mo      19.35334855       4.30404366      24.41666131      -1.61766316      -2.12980897      -1.37119827
Mo      16.47614827       5.04867661      24.06855952      -4.50711456       2.27836865      -1.53942787
C       18.19333995       6.04201592      24.31660333      -0.14368377       0.24307017      -0.83392851
Mo      21.14492054       5.37134223      26.75070074       2.07376484      -0.93733183       1.87465446
Mo      18.34854124       5.97509373      26.33694510      -4.44415120      -1.16682289      -4.63285858
C       19.42582497       4.28530402      26.57570824      -0.18703074      -0.10174533       0.54711567
Mo      20.71079923       8.65276474      15.27052933      -0.38693526       0.14817770       1.70940630
Mo      17.90870233       9.26604973      15.17080455      -0.96268801      -1.68679325       1.39778845
C       18.77344820       7.51585247      15.01954925       0.21132574       0.57289949       1.50688858
Mo      16.69879358       9.79333071      17.42198626       2.00108669      -1.27263659      -1.11940197
Mo      18.68091582       7.59276512      17.30682705      -0.16020639      -2.17766593       0.77092086
C       20.49835671       8.64373041      17.28653948       1.84747133       2.22697632      -0.10477564
Mo      17.51459817       7.83095058      19.76027654      -1.50219427       1.99600406       2.73700512
Mo      20.25525962       8.76893021      19.35939442       0.56751295       0.11081059       1.81092899
C       16.57748137       9.71321010      19.66082463      -1.51760512      -1.75733839       0.35015422
Mo      19.28232108       8.95882535      22.15846310       1.66234885       7.62699211      -3.56195525
Mo      16.43218548       9.78660428      21.55282662       0.56384988       0.42271637      -1.79005591
C       17.50617433       7.80027304      21.81836182       1.71117167       1.68981037       1.33865378