590
Lattice="28.1778 0.0 0.0 4.672575348 17.3445327417 0.0 0.0 0.0 41.7172" Properties=species:S:1:pos:R:3:momenta:R:3:forces:R:3 energy=-696959.0884973784 stress="-0.020183436101651298 0.006213661232545743 0.012060713312506976 0.006213661232545743 -0.005015730183134563 3.9212710503558484e-05 0.012060713312506976 3.9212710503558484e-05 -0.0025915584512302726" free_energy=-696959.0884973784 pbc="T T T"
Mo       5.46672178       1.64497139      15.37178415       1.94736747      -1.01625130      -1.29983062      -1.07304656      -0.88692105       0.23409652
Mo       2.49557563       2.38351176      14.99469435      -0.88446591      -1.79632362      -2.82628364       0.92146055      -0.00961095       2.36808646
C        3.53107787       0.53610520      15.16817564       2.17217898      -1.49065528       0.81273784       0.56201483       0.58879567      -1.59618944
Mo       1.34055355       2.72992829      17.55405700       5.88017270      -2.02076417       0.97281078       1.28975624      -0.75323909       0.62324640
Mo       3.32948229       0.61827164      17.26867407       2.19504767      -1.90152285       4.24849908       0.41442955       0.24573169       0.07956690
C        5.22504990       1.67974333      17.38910839       0.06322840      -0.68283528       0.96191987      -1.64876384      -1.18562227       0.09198198
Mo       2.01004825       0.93930449      19.81834528      -4.19570073      -3.25631017      -2.12326867       2.60745481       0.12588592       0.69034217
Mo       4.92902932       1.77981545      19.55118847      -3.12693957       3.07307700      -2.64810870      -0.13961256      -1.08728321      -0.39347542
C        1.05313979       2.77533199      19.71621890      -0.15847494       2.19407653      -0.63627121      -0.02696987       0.00933242      -0.74429552
Mo       3.66237230       2.09778333      22.15831036      -0.96412609       5.16015378      -1.87193637       0.76741529      -2.93530489      -0.95379828
Mo       0.92586619       2.87150927      21.74329868       2.50334116      -0.76871000       3.87880590      -2.61437225      -1.66564234       1.14504030
C        1.76792904       0.87474102      21.89625951       0.06793411       0.44411424      -1.21706929       1.63118367       1.16168402       0.62985481
Mo       4.35068850       0.25400280      24.36337438      -1.81849906      -0.48657955       2.87521620       2.37681545      -0.91274551       1.50514032
Mo       1.57597418       1.06732527      23.97684166      -0.09004804       5.58271584       0.27111432      -0.36092626      -1.08194496       1.13780805
C        3.47426491       2.00962611      24.18429492       2.12552876       0.68648193       0.37170153      -1.15146880       1.14386534       1.40226330
Mo       6.02846178       1.34185975      26.79267787       0.05013995      -4.16484915       3.49094198      -0.23449907      -0.88851517      -2.51040328
Mo       3.21650769       2.15771614      26.29664100      -0.67176593       1.45274433       1.26998984      -0.27778960      -0.99464355      -0.79645688
C        4.12541009       0.31128918      26.59007572       0.66214097       0.07476864      -0.16709400       0.90137161      -0.63367304       1.05506413
Mo       6.27249415       4.47752202      15.35135300      -1.68640167       2.90303113       1.60167684      -0.23599762       0.50274295       0.91999795
Mo       3.41005485       5.24410796      15.08615147       2.06829914      -0.14298316       6.35161603      -0.72523120      -0.06004719       1.14465839
C        4.44688351       3.42589234      15.23864890      -1.14961696       0.06978900      -0.40133806      -0.84034440       0.01932998      -3.00539005
Mo       2.14705557       5.51429300      17.72550678       4.70605845       0.29042620      -1.56711120      -0.22400924       1.11700022      -2.58986874
Mo       4.13437371       3.54914982      17.23205674      -8.04355675      -0.55846327       0.60516910       0.14207879      -0.57661312       1.22205383
C        6.01162004       4.51660361      17.35868904      -1.07833394       0.89959403      -0.62358872      -0.24458743       0.41996586       0.49115354
Mo       2.95577436       3.71983663      19.87690574       4.74446425       3.21894508       4.04362899      -0.57464201       1.25749934      -0.36545246
Mo       5.78065006       4.67264949      19.55078121       1.87135084      -4.35616652       1.57477441      -2.43657472      -2.22404811      -1.18745966
C        1.88063671       5.62712212      19.68321048       0.41997364       0.11261949       0.07785834       0.41245612      -0.78740695       1.12044235
Mo       4.39774531       4.93475273      22.23156474      -4.72526349      -0.47852314       1.95066697       0.34907201      -0.33195846      -1.95214659
Mo       1.67070735       5.73912143      21.72238167      -3.53702380       0.32351306      -1.03478105      -0.52967552      -0.78842630       1.81800319
C        2.63170430       3.75685584      22.00252092      -0.04815307       1.40467062       1.02841747       0.65677239       3.15991123      -0.17661481
Mo       5.19886947       3.18570095      24.41931965      -1.76460657       1.99247911       3.15766720       1.98219682      -2.20143308      -0.45672547
Mo       2.31435591       3.81770721      24.12448940       6.43907833       3.59660065       3.73264504       0.22791206       0.93479267       0.61771445
C        4.21377828       4.86423836      24.17748332       0.41336328      -0.95080309      -0.73095544      -0.94983669       1.82372889       2.15380289
Mo       6.80807163       4.12138245      26.78155548       5.96199551       2.32924571      -1.89647317       0.53200403       1.24756990      -2.67820414
Mo       3.98950539       4.90404837      26.25720163      -3.44464004      -3.08771103       0.59794397      -0.46437298       1.06885749      -0.00477391
C        5.06601356       3.12677906      26.50283721      -1.78092565       0.92341978      -0.44555396      -0.64850764      -0.07233277       2.16704014
Mo       7.01571649       7.47520687      15.47414959      -1.12099108       5.54841518       1.69613134      -0.04229678      -1.81274200      -0.19050800
Mo       4.18421136       8.14195784      14.91670014       0.35602293      -0.71089616      -0.02919328      -0.68376253       0.06706643       2.72459262
C        5.20939380       6.34253305      15.17331909      -1.53121009      -0.01535916       0.18490914       0.37419657      -0.06507084      -2.47881967
Mo       2.95618133       8.40666639      17.64352122       0.83833707       0.57634552      -4.70387018       0.45996357       1.62258976      -1.49330277
Mo       4.81435742       6.36834912      17.17930747      -1.25333422      -3.02943347      -1.57539840       0.65816012      -0.29206352       1.69348618
C        6.63504244       7.35302719      17.48636357      -0.54120818      -0.45790100      -0.39558613       0.75739094       1.04525940      -0.10037158
Mo       3.70267040       6.70901172      20.00547753       1.09095797      -1.70830571      -0.18761184       0.00899233       0.47257225      -2.03835338
Mo       6.44437524       7.43042915      19.60981346      -4.68168193      -4.78647727      -0.14058120       0.09403484       1.38041125      -0.85335480
C        2.57775189       8.62083619      19.62699922      -0.23929939      -0.51162703      -1.00479850       1.67034805      -2.45491466       1.42163100
Mo       5.30475162       7.69963968      22.25931846       2.11233374       0.94882105      -6.06713704      -0.89113512       1.61278909      -0.30726527
Mo       2.39669522       8.67054943      21.71889976       1.71735368       4.58485538       0.06668017       0.24853422      -0.81391926       1.67015920
C        3.42235455       6.82996326      21.99723471      -1.58937753      -0.23471433      -0.36977227      -0.06507262      -0.50390139       0.98447370
Mo       6.01520656       6.03806851      24.44004486       2.20824993      -1.31394537       1.05218675       0.99762798      -0.74776095      -0.36894275
Mo       3.19521759       6.79673041      24.15241887       2.00405726       0.00161128      -0.06704773      -2.29193963      -1.12390152      -0.42743071
C        4.87798741       7.79096513      24.35074426       1.25494208      -1.04567245       1.25031823       1.87948352       1.69776294      -0.26136883
Mo       7.62469402       7.08871986      26.74120999       1.87922988       6.47053039       3.10691180      -0.71475603      -0.03236763      -2.52188741
Mo       4.68249664       7.81616151      26.33297377       0.48633166       0.51162923       0.74767571       0.73500995       1.08173055       0.60825442
C        5.71811955       6.05941479      26.44425570      -1.60645382      -0.26745126      -1.77704386       1.12522277      -0.59734032       2.89089762
Mo       7.82679900      10.37375797      15.41658172      -2.21703933      -2.66804031      -0.55993779      -0.80766229      -1.36911795      -0.89544889
Mo       4.91951845      11.01937011      15.06275900       3.99991921      -0.45860863      -1.55777687       0.02390002       0.08658727       1.86543360
C        5.96967412       9.15413426      15.27066013       1.95500158      -0.46192670       1.45324849      -0.27215739       1.61315850      -2.01519433
Mo       3.71818136      11.46514554      17.69014010       0.94553865      -0.20663524       4.23184346      -0.68682064      -1.78740467      -1.37338924
Mo       5.71353319       9.24902426      17.35459251       1.22938295      -1.20406616      -1.04900265      -0.99940378       0.03139674      -0.35301819
C        7.56325509      10.22932434      17.36179490      -0.48061258       0.76950797       1.17905767      -1.52918911       1.48629312       1.00980899
Mo       4.40751756       9.64520729      20.01049824       1.74665594      -3.11288679       0.46953500       1.15423108      -0.80546640      -2.18053788
Mo       7.17824797      10.38287154      19.51227181      -0.28182700       0.69558256      -1.06455772       0.34880914       0.05565875      -0.06400255
C        3.50577907      11.48737413      19.79223407       1.11417447      -0.82744616       0.86690820      -1.62776818      -0.47334628      -0.61520627
Mo       5.98327795      10.66473027      22.13577125      -2.54350355       2.92947411      -4.05143538       1.61446525       0.73530830      -0.33333842
Mo       3.08119356      11.53565961      21.86672065       0.61744818      -2.36854263       4.04752898       0.18041337      -0.91145264      -0.04277821
C        4.29029069       9.72618879      22.00370148      -0.74565841       0.83777860       1.35830637      -2.08052350      -1.86184913       0.12208831
Mo       6.82188778       8.97863059      24.51906613       3.98511849       2.31600926       4.88873815      -0.00845637      -2.10397888      -0.80236108
Mo       3.89793905       9.66073504      23.99801915       1.81406910       0.86971861       0.60206193       0.66283984       0.43432373       2.04106373
C        5.83847180      10.74676608      24.20639052       1.10277976       0.34616802      -2.45850122      -3.08106159      -1.66647786       1.09459908
Mo       8.35974486      10.01197283      26.68881601       2.45708410       2.99044214       6.77749682       0.09407122      -0.20124227      -1.90107814
Mo       5.42849538      10.80361059      26.34429563       0.01844854      -2.63491285      -1.50068105       0.22002853      -0.88807200      -1.04164964
C        6.58067624       8.93747493      26.59914508       0.69431533      -1.84445875       0.72336548      -0.57207075      -0.27099401       1.38922917
Mo       8.52106487      13.17946208      15.45228010      -1.69500942       4.41170021      -2.35430393       0.80707117      -0.82711257      -0.85542008
Mo       5.67175921      13.87502630      14.90575654      -2.30526880      -1.67247711      -1.35355428      -0.33247687       0.44551803       2.57540942
C        6.76251879      12.13643144      15.22929064      -0.80067811      -1.92556863      -0.37464865      -1.13233467      -0.62958685      -2.69895682
Mo       4.37503021      14.19321852      17.54790513      -2.66308252      -4.28962953       5.56966317       3.22762926       1.53495539       0.19237249
Mo       6.43973113      12.17411786      17.24649563      -1.54740397       0.40093796      -4.33085827       0.12004569      -0.13962491       1.23539523
C        8.25630076      13.29187101      17.42617260       0.43593282      -0.30060308      -1.23110349      -0.44557762      -1.82014940       1.04260009
Mo       5.21378624      12.53058590      19.89235157       0.80552161       6.29166734      -1.60334796       0.98703422       0.19189922      -0.69407842
Mo       8.05134539      13.32727680      19.62599776      -1.27203920       2.72362742       5.86054882      -2.43258039      -1.24250337      -1.68904748
C        4.11997434      14.39502654      19.72299158      -2.02337547       0.46126676      -1.03765715       0.98325895      -0.26678237      -0.10397107
Mo       6.71995166      13.56435218      22.27709635      -0.19670042      -5.10621642      -0.07707017       0.58050917      -0.76718949      -2.09560551
Mo       3.94720554      14.31922412      21.83082062      -1.59958260       3.65575225       2.60176616      -0.36568518       0.36232034       0.20360481
C        4.91713974      12.43279275      21.91839109      -1.05573177      -0.39996708      -0.54341511       0.79294280       1.42342596       1.14529252
Mo       7.47246292      11.71081665      24.37690208      -0.93368482       1.60640598       2.94754655       3.62466501       1.38608106       1.11776778
Mo       4.75540784      12.49776089      24.04132073      -0.11632007       4.88477619      -0.43264005      -1.29932221       1.04059058       1.05212771
C        6.60578274      13.61108215      24.29417351       0.92574575      -0.81406735       0.65982062      -2.18638001      -0.60954281       0.31540576
Mo       9.03863216      12.81756365      26.62535719       5.30604965       3.49712212      -3.11154049       0.55989577       0.80068361      -1.70450937
Mo       6.21833434      13.61577268      26.27563618      -0.54908834       1.88974382      -0.74287392       0.76429076       0.35539349       0.51241974
C        7.22271653      11.74832807      26.52086453      -0.67330884      -0.00243565      -1.10602890       0.71482731       0.87391199       1.73472113
Mo       9.23071371      16.03088712      15.37763284       1.67871923       0.62581873       0.25459333       1.47628162       0.81636647       0.59260626
Mo       6.50790507      16.74684434      15.05988208      -0.84860312       0.23236661      -5.84973998      -1.40810841       0.53357877       1.54790199
C        7.51583488      14.91948001      15.26319042      -0.32573694       0.72797355      -0.99016108      -1.00059985       0.54817472      -4.10856675
Mo       5.29537531      17.06891848      17.60037173      -2.89082256       0.79217404       4.02441327      -0.23352350       1.17289082      -0.59229844
Mo       7.30961733      15.09654493      17.20495102       1.35499461       0.85369554      -0.61754434      -3.34917993      -0.62548010       2.43239558
C        8.98943910      16.07589236      17.45342610       0.86784501       0.54270274      -1.54706440       1.48944748       1.83431727      -0.90786100
Mo       6.01340276      15.33839669      19.90554996       1.43611649       2.27955880      -2.60026173      -0.58863265       0.42416242      -0.85497258
Mo       8.85518570      16.05289937      19.48658102       0.03843999       1.96496763       0.02917404      -0.86776880       1.48933431       1.22850333
C        5.01199302      17.27950904      19.72690381       0.02392660      -0.96850213       0.21898307      -1.16152227      -2.54452568      -0.91122013
Mo       7.55348894      16.38471810      22.17057231      -3.05556231      -2.40524525      -1.25793300      -0.09506825       0.74427968      -1.62761072
Mo       4.73396883      17.19272657      21.75798910       3.51161298      -2.22833754      -1.10012133      -0.71394825      -0.04136748       1.32993006
C        5.72333091      15.31239299      21.95703098       0.30729476      -1.14024273      -0.38061913       0.28673758       1.29313661       0.58563408
Mo       8.26790682      14.63669424      24.37308908       1.45002395      -0.95135123      -0.24805845       3.07484896       0.52622504       0.87062212
Mo       5.58410181      15.47086203      24.10800773       8.52507593       2.99115375       0.15257393      -2.24700040      -0.12864118       0.06586007
C        7.36302276      16.50673693      24.17804602      -1.76465002       0.57521282       1.57211934      -1.03602587       0.35510314       1.51058175
Mo       9.89035296      15.78723274      26.76627136       3.21089508      -6.02148688       4.19509596      -0.09972174       0.25765693      -2.69445359
Mo       7.04964270      16.47632934      26.29698927      -4.53943816       3.17736374      -0.45142410       0.27837696       1.32497166      -0.70285708
C        8.05635595      14.74414301      26.54286444      -0.14305987       0.07014452       0.85694759       0.54070116      -1.16086844       1.31437299
Mo      11.00240957       1.70154287      15.39810434       3.84865098      -1.22966076       3.42872809       0.57172382      -2.53342467       0.43331056
Mo       8.15901472       2.30554508      14.93057183       3.47335891      -3.82698414      -1.45151129       0.36072843       0.58561841       2.25775214
C        9.18118961       0.48147114      15.12578810       1.53559345       1.48097983       0.83498396       0.10331928       1.55025390      -1.59287733
Mo       6.90996313       2.63758428      17.72434928      -7.96588609      -1.87531707      -0.02828933       2.20859423       1.43784865      -2.02506306
Mo       8.90616708       0.59800194      17.25012618       1.41816159      -0.52529521       2.95154056       0.71266096       0.26435117       0.41904174
C       10.88578822       1.57041239      17.43609263      -2.34779842       1.19410171      -2.27903397      -1.64334416       0.59360270      -0.34691634
Mo       7.82538915       0.98392206      19.97645743       2.67711820      -0.40755832      -4.23962634      -0.98004205      -1.50063129      -1.18145466
Mo      10.49901533       1.62594692      19.56982228       0.24875724      -2.93223509      -0.99250305       0.27158739       0.97693861      -1.22703748
C        6.79694156       2.75802693      19.73889086       0.79425902       0.92364743       0.28293775      -1.17581083       0.33469137       0.58119952
Mo       9.24480532       2.06338896      22.11849858       0.11577728       2.21168406      -5.03137726       0.58594802      -0.34882798       0.13419322
Mo       6.43392449       2.77552643      21.80566253       4.49968393      -2.54112937       0.99032119       0.30827604       0.89722415       0.70735485
C        7.43809929       0.87755279      22.01473915       0.46568945      -0.51592078       0.68179843       0.35500957       0.98758404      -1.13036212
Mo      10.02508658       0.23364909      24.38000919      -0.07655088      -2.80663625       1.34116194       1.47841795      -0.08893841       0.44071314
Mo       7.24396763       1.00486810      23.98255198       0.62144219      -2.75467560      -0.52840879      -1.05933795      -0.39230772       2.71440035
C        9.01425263       1.98013810      24.17333695       0.51802284       1.95166417      -0.71930018       0.64588491       1.35732118       1.71617348
Mo      11.72266695       1.28054195      26.77915836      -2.23236361       0.95180000      -1.78606185      -0.78263981       0.62999291      -2.78558454
Mo       8.75598218       2.13332049      26.39227966       3.75602360      -1.26651725       3.56866819       1.09430877      -0.34884088      -1.54272797
C        9.84461049       0.25548147      26.51107696      -0.99148604      -1.48427311      -1.16357599       0.00826548       0.46272066       1.53892686
Mo      11.77972734       4.58090431      15.44307326       1.66558749      -0.76489763       0.65553984       1.74980302      -2.22770686       0.15820373
Mo       9.08333820       5.20080670      15.04617350       3.51539116      -4.23846596      -3.12571935      -1.73159101      -0.05202386       1.55724841
C       10.09842961       3.37634015      15.10177394      -0.47454365      -1.18812374       0.74744241      -1.81998875       1.37006484      -1.95600167
Mo       7.77993168       5.60856285      17.71336195      -3.00072315       4.47189892       0.50740656      -0.05958801      -0.21056727      -2.33292552
Mo       9.69683827       3.54291179      17.20837228      -0.07449083      -0.90712217      -0.04537662       0.36911535      -1.18779664       0.56503582
C       11.50080714       4.47161643      17.51943645       2.11755707       1.14955945      -1.11641484       0.50281332       0.76859175      -0.86692964
Mo       8.54329797       3.80619238      19.88480911      -0.74611572       3.24343701       2.89808829       0.59286207       0.12053128       0.52217628
Mo      11.40163834       4.56101709      19.59941352      -0.47649087       0.77188555      -0.52651543      -1.62093456       0.30190386      -1.00333497
C        7.47765681       5.61282190      19.71710428      -1.01212551      -0.53669748       1.01882869       1.57688066       1.06248420       0.71063950
Mo      10.02784854       4.94977091      22.18163391      -0.36468624       2.07815917      -0.08361360       0.84907434      -0.28528268       0.30764873
Mo       7.19439464       5.76111272      21.78091870       1.89649881       4.78350686       0.48633807       0.10514717      -1.19015575       1.19071350
C        8.27709137       3.92663851      22.01746274      -0.09158945       0.29893144       0.30730306      -0.85682155      -0.74895832      -0.34338199
Mo      10.76950354       3.19612653      24.47467826       5.19831810       2.22292243       2.58930544       1.93382514      -2.49772980      -0.27162260
Mo       7.99348420       3.81696329      24.13099231       2.06553175       0.79917906       6.33193872      -0.44106611       1.01664350       0.28474302
C        9.84970978       4.95070604      24.33944048      -0.22466544       0.49907749      -0.48441572      -0.98432048       0.40158571      -1.91482883
Mo      12.46115781       4.13716482      26.67952788       5.32337628       1.76180926       0.15454636      -0.15789894       1.03465558      -1.82167966
Mo       9.53351533       5.03656787      26.24694057       2.39160491      -0.35501000      -3.29535279       0.18765163      -0.56342284       2.53754356
C       10.61822414       3.20441664      26.60406190      -1.59300867      -0.52676014      -0.71234929      -0.30161734      -0.74150864       1.14952393
Mo      12.55713349       7.45000861      15.29907573      -2.33231869       0.41634131      -1.07436646       1.21125314      -1.11780584       2.44295210
Mo       9.83838674       8.09220365      14.97945746       0.33533483       0.61875601       1.07929220      -0.91326998       0.24296188       2.32885073
C       10.84898406       6.26083569      15.13432497      -1.66508458      -0.77634410      -0.74518840      -0.80993989       1.92054105      -2.64662151
Mo       8.55492153       8.52843420      17.67322572       2.00492274      -1.06997924       2.99962901       0.76957698      -2.03399624      -2.07763310
Mo      10.58643694       6.38316188      17.21840663       0.57603993      -1.72657047      -0.47071462      -1.97272043      -0.31630434       1.00844403
C       12.31597861       7.36584148      17.53821162       1.03416297       1.71626823      -2.18770693       0.67802286       2.64464057      -2.16565351
Mo       9.30570035       6.67250825      19.90544418       3.37862233       2.21472498       0.65161635      -0.11608466       0.52464944      -0.00186433
Mo      12.19441836       7.40395701      19.55333960      -1.24062133      -2.76782657      -0.76281621      -1.75702503       0.74781874       0.83107034
C        8.26977102       8.55048253      19.62819036      -1.21093243      -1.45307113      -0.53220043      -0.85960443      -0.58856762       2.38567525
Mo      10.92076120       7.87743136      22.19411647      -1.37383422      -3.43227120       5.16855211      -0.27736829      -1.78107620      -1.39223895
Mo       8.06604572       8.65645635      21.84558818      -1.24242280      -5.99254577       4.01427544      -2.22403616      -1.88025913      -0.69708764
C        8.97765207       6.75136042      22.01395815       0.04860435       1.51820365      -0.82542568       1.20518306       0.55353009      -1.29009082
Mo      11.60971353       6.04620762      24.53601005      -1.82239905      -3.85769895      -0.04460731       2.01009769      -0.96876667      -3.43917275
Mo       8.89038024       6.77003542      23.99483488       0.39381114      -7.43855220      -0.85792462      -1.43755249       1.12483817       2.51355711
C       10.70142693       7.90255211      24.18559450       0.59700097      -1.04842723       0.19295895      -1.73361127      -1.14733767       1.16412291
Mo      13.26637020       7.17156779      26.72095108       7.33934079       0.34026057       2.62621107       0.01182967      -1.24228970      -1.93375682
Mo      10.38083605       7.85833782      26.25118641      -1.59135309       2.85087387       3.41886379      -1.55495453       0.79346012       0.29156752
C       11.35004912       6.10325425      26.42963518       0.04325127       0.83992935      -0.83929456       1.13989955      -1.06253574       4.05878154
Mo      13.33418044      10.25614955      15.38442850      -2.96160787       3.04280882       1.67218007       1.02550677       0.39157568       1.48781059
Mo      10.63183087      11.02673378      14.96939064      -3.72596271      -0.36247660      -3.16476197      -2.68149180      -0.84825627       1.99557211
C       11.61578869       9.21205446      15.13339566      -1.27640441      -1.11179019      -1.49211212      -1.10968462       0.38209041      -1.58477847
Mo       9.27972238      11.30335696      17.58027360       3.71551074       0.12835768      -0.11816642       1.33368585       1.69047917       0.34795679
Mo      11.32608427       9.24916075      17.35101600       0.63219975      -0.20371185       0.60182045      -0.58563943      -0.23634191      -0.84957604
C       13.09808166      10.33639828      17.48297437      -0.47892541       0.20197928      -1.21487093       0.64772256      -0.44601351      -1.34814772
Mo       9.97040434       9.61580410      19.84865021      -3.17054677      -1.98746575       0.00753499       1.61409026       0.45470387       0.33069971
Mo      12.97593921      10.29377794      19.51901846       1.47426371      -1.42518584      -3.30747801      -2.81045290       3.12133158       0.96694443
C        8.96442668      11.51832520      19.72500733      -1.54704889       0.09624354       1.31355706       0.54248151      -1.53666233      -0.87911608
Mo      11.64417689      10.59518166      22.23108193      -1.30972270       8.45194636      -0.30334424      -0.26425072       1.11571122      -1.72969718
Mo       8.74746014      11.54232599      21.74516838      -0.38616930      -1.24332461       3.02114626       0.75821798      -1.01959293       1.68459046
C        9.76404527       9.53417135      21.98702853       1.45950681       0.97423587      -1.07978382       1.80964626       2.86747921      -0.44232776
Mo      12.41661908       8.80281917      24.50424217      -2.87485078      -4.63470898      -0.34209409       2.33317738       2.08917858      -2.02025791
Mo       9.57468776       9.67550426      24.06033982       6.29534081       1.01570851       4.00510139      -0.77321099       0.19301988       1.42368095
C       11.36337477      10.73745922      24.19171001       0.14644196       1.14636943       0.08553551       0.45380318      -0.71396304       2.39649735
Mo      13.89735091      10.06070430      26.80640656      -2.03089345       2.64954689      -3.08584972       1.07708500      -0.57055078      -2.32170845
Mo      11.11600629      10.72344488      26.36903399      -1.23052624       2.55900093       0.86318800      -0.03358308       0.23571775      -1.95322565
C       12.14351996       8.83851950      26.45993930      -0.73914382       0.80491514      -0.69022301       0.55890183       1.58889254       3.70928514
Mo      14.18943851      13.19905927      15.28236858       3.72004114       0.16790889      -0.88274564      -1.14604980       0.04124990       2.73945749
Mo      11.27101764      13.89443821      15.03437855       1.21614436       0.52038016      -0.94001669      -0.06079581       0.26717510       1.80712510
C       12.25099401      12.03319125      15.24845791      -1.70581033      -0.75392998      -0.44782108       1.95900283       1.81771178      -2.22348863
Mo      10.00370687      14.29649344      17.59263275       1.53254128       1.45408849      -1.41911682       2.52317115      -1.04512685      -0.27934000
Mo      12.02506246      12.10476876      17.31250020      -2.46806390       3.79513674       1.13392621       0.86622862       1.00763188       0.03637536
C       13.97550563      13.27708325      17.43595821       4.14053743      -0.99960112      -0.19159387      -0.55716396      -1.50777217      -1.81866491
Mo      10.88016594      12.41485215      19.87167256       4.41679263      -1.93226757       3.99835494      -0.28844382       0.79142368      -0.15077794
Mo      13.74175577      13.15740445      19.45319534       3.80547544       1.99245988       1.08935737      -1.71502376       2.54036799       0.74177883
C        9.76769746      14.21501545      19.66085541      -0.23998153       0.30471413       1.19468568       2.80778283       1.23899194       0.47966922