720
Lattice="28.1778 0.0 0.0 4.672575348 17.3445327417 0.0 0.0 0.0 41.7172" Properties=species:S:1:pos:R:3:momenta:R:3:forces:R:3 energy=-699040.5090700468 stress="-0.02550716891621472 0.0031130897538765284 0.00888734407823541 0.0031130897538765284 -0.015294355697031527 -0.0011107766473314774 0.00888734407823541 -0.0011107766473314774 -0.014256017167754443" free_energy=-699040.5090700468 pbc="T T T"
Mo       5.38673709       1.59672442      15.29692812      -1.56685262      -1.62426899      -3.11864809      -0.95841895       0.08976986       0.82585217
Mo       2.53882144       2.29831210      15.10766243       1.99451351       0.80463263       3.76502242       0.05493704       1.11311777      -0.03457107
C        3.48593047       0.55078088      14.77779897       0.64373598      -0.66416064       0.82838216       1.08134434      -0.39751459       0.83697014
Mo       1.54564978       2.60195617      17.63578393      -0.55519156      -2.22913463       0.57156296      -3.13900710       1.17346181       0.08048488
Mo       3.24979627       0.49724277      17.34728286      -5.37455694      -1.51069066      -3.79297839       1.36153322       1.57109592      -1.41191085
C        5.00797052       1.67353192      17.33616264       0.80436782      -0.67967951       0.42871870       0.57156825      -0.52337342       0.04853001
Mo       2.05254588       0.85553157      19.82046366       4.31627766       3.10949113       1.61562277       0.14203599       0.82700132       1.47813188
Mo       4.82648901       1.76916631      19.51693720       0.29969428      -3.44454601      -2.11781509       1.35226093      -1.25446721      -0.38852596
C        1.06224485       2.79014658      19.73507853      -1.00652847       1.42730115      -0.47710235       0.94409018      -0.02554761       0.66712968
Mo       3.66971608       2.13767887      22.18177106      -0.04309860      -2.74457837       3.46050925       0.32956437      -0.38660896       1.20326185
Mo       0.87584888       2.81809486      21.93303689      -1.62106779       2.16139238      -0.37802527       0.23187937       0.34352969      -1.33197365
C        1.94442219       0.98984768      21.98650388      -0.06891987       0.61049855      -0.95792144      -0.17777378      -0.19077997       0.28713540
Mo       4.45495348       0.16184170      24.62550521       3.05099131       0.26453670       3.71975265      -0.02962532       1.64969401      -0.94179127
Mo       1.58333763       1.16804864      24.12925159       2.61844315      -2.66903187      -0.51702083       1.45378753      -1.27253246      -0.30009416
C        3.49872419       2.12754732      24.38203178       1.27680031       0.52996568       0.78368742      -0.38173829      -0.54859328       0.19488970
Mo       6.04765590       1.17552797      26.70707953       1.99109648      -0.08139114      -3.69178813       0.28877164       1.60046196      -0.52859539
Mo       3.20432302       2.10961017      26.44804329       3.92783462      -0.59215275       2.89539997       1.52829426       0.34579778      -1.15440088
C        4.24264129       0.23528601      26.77900059       0.50832386       0.13125266      -0.67757878      -0.04730891      -0.35125982       0.11739493
Mo       6.04867462       4.56540634      15.41409742      -1.48919692       0.39073816      -1.27915321       1.29959194      -0.78160542      -0.49733655
Mo       3.34510686       5.23406659      15.30645233      -0.43355254      -1.33686020       2.37825734      -1.04802201       0.82402623      -3.42940722
C        4.38624430       3.43679287      14.99016144      -0.42704277       0.11062924       1.31745624      -0.81008136      -0.63531487      -0.26461807
Mo       2.32012205       5.59257879      17.52067639      -2.30723269       1.88829281      -1.24710065      -2.90937069      -0.09343194       1.47745449
Mo       3.84817598       3.48321923      17.22923425       2.01179527      -1.09029764      -0.64976572       3.54018413      -1.02348447       0.49639423
C        5.79074865       4.49644486      17.41078040      -0.68572462       0.74770698      -0.34961137       0.95381486      -0.05448672       0.67123880
Mo       2.96604692       3.86762289      19.98802096      -3.26007767      -3.03938538      -2.40397375      -1.55449352      -0.19712223      -0.44162695
Mo       5.66336831       4.41870230      19.54884894      -1.92331363       0.29555923      -1.95987521       0.20903830       2.80802230      -0.52955063
C        1.85676512       5.67410239      19.74545499      -0.10855499      -0.22383510       0.17049428      -0.09738022      -0.33472064      -0.22097956
Mo       4.37959709       5.00286431      22.28072828       2.19242132       4.58288509       1.39325936       1.14067045      -0.83866875      -0.42155703
Mo       1.44995271       5.75550270      21.87454133       1.01981792      -0.16597279       1.53786877       1.92408473       0.01964822      -0.43626213
C        2.61589209       4.01567524      22.05231409      -0.03835778      -0.08628105       0.25952771      -0.52506536      -1.26205272       1.00738321
Mo       5.37422538       3.14703488      24.63773412       3.02147322       1.10824827       2.32191374      -1.87411363      -0.28037018      -0.90819208
Mo       2.46597319       4.01590965      24.30164928      -4.46694113       0.31156307      -0.02514798      -0.29448149      -1.45007151      -1.82738528
C        4.25355645       5.03065599      24.37706813      -0.05583291      -0.29373833      -0.18985775       0.88441911      -0.37694971       0.50896368
Mo       6.99710574       4.27776729      26.54041156      -0.41581561       2.20605098      -3.28157354      -1.02967537      -0.71982781       2.04390223
Mo       3.92943876       4.96009519      26.39246278       4.71415760       1.54546573       2.58512978       2.09102120       0.29385788       0.36998517
C        5.27004261       3.10790938      26.91009670      -0.60959491       0.62046718      -3.28974303      -0.87009927      -0.14285906      -0.84509223
Mo       6.89636635       7.47856551      15.40934729      -2.46871568      -1.93644751       0.67525348      -0.08382201      -1.44726751      -0.07032493
Mo       4.09048727       8.17565975      15.17533630      -0.65035553       1.69424866       3.33198703      -0.28557669      -0.50457196      -1.50112812
C        5.14829814       6.37326536      14.94653772      -1.54065334      -0.04123267       1.00263384      -0.14836506      -0.45325774       0.42257690
Mo       3.00711657       8.44968428      17.37066105       1.80595926      -1.14188005       0.08289557      -1.52759348       0.92938317       1.75545330
Mo       4.81704212       6.30823788      17.19025205      -0.20919106      -1.17078056      -0.99600983       1.68831326       0.85725001       1.34541967
C        6.65875771       7.41344777      17.44699974      -0.03986384      -0.94053512      -0.21410615       0.58915133       0.71924132      -0.80268835
Mo       3.70232337       6.72489325      19.91859198       0.68612215       2.58390101      -0.63382599      -0.89801648      -0.77659425       0.07385220
Mo       6.28119099       7.37249245      19.52487753       3.12339432       0.40142947      -2.32792506       2.01198069       0.60790155       0.51914912
C        2.68094404       8.49828374      19.64568805      -0.13297220      -0.37643105      -0.92246023      -0.54439675       0.44256958       0.01726831
Mo       5.27820756       7.79206969      22.08573840      -0.98046117      -1.23702693       5.42541491       0.04115364       0.69238309       1.58279133
Mo       2.41422112       8.67821319      21.80784308       1.42002076      -3.42731982      -0.21244996      -0.33386462      -0.81572502       0.04909138
C        3.41561148       6.79947562      21.99137832      -0.20668044       0.22592941      -0.04822556      -0.63329464      -0.00562982       0.48212721
Mo       6.14041690       5.99189654      24.54445335       1.20875683       3.37548097       3.42523627      -1.58738157       0.32610232      -0.52182874
Mo       3.26497171       6.84949020      24.10564155       1.50038615       1.26163852       0.83526196      -0.50155581       0.48605334       0.20410898
C        5.14935869       7.83995461      24.35320259       0.68785692      -0.84611598       1.32959195      -0.53616677       0.58400166      -0.60852393
Mo       7.65373604       7.29003033      26.69404754       0.65484532       2.68397149      -2.90074883       0.29056704      -0.35566368       0.18747677
Mo       4.84347720       7.89727977      26.36298191       6.10659637       0.16916544       2.37526770       0.31673590       0.08736203       0.46143297
C        5.99517011       6.08431135      26.73197348      -0.83966880       0.33317683      -1.05534067      -0.80614361      -0.00643614      -0.33800786
Mo       7.68557875      10.18905529      15.32938529      -2.83915040       0.77376610      -2.67744088       0.24703515       1.09186924       1.35211762
Mo       5.02086431      11.00565824      15.04276699       0.17863439       0.59710627       3.70680896      -1.94625138      -0.01628359      -0.19027335
C        5.88477868       9.14750991      14.83857217       1.49356067      -0.06419758       1.40214884       0.14653075       1.07838221       0.74234999
Mo       3.77513995      11.35992432      17.66497674       2.90493731       1.64127507      -2.13755010      -1.47730933      -0.29216410      -0.54508004
Mo       5.67135532       9.25039085      17.22191434      -1.93130166       2.41512023      -0.60840662       1.08883435       0.01546811       0.39900461
C        7.49431298      10.35190233      17.38004224      -0.85736704       1.23716145       0.20521637       0.67790409      -0.46836693      -0.48478969
Mo       4.47183299       9.47463267      19.84392419       1.21840315       1.68443137      -0.32079268      -0.15298729       1.78587157       0.42221886
Mo       7.23795370      10.38288281      19.50743345       2.96191560       1.87813147       0.47271910       0.06413468       0.09883548      -0.57219316
C        3.40079846      11.41751625      19.83874297       0.35315851      -0.30493268      -0.42081361       0.75532563       0.10446666      -1.24115204
Mo       5.97204587      10.75282884      22.06995329       1.50078149      -0.13887803       3.76932630       0.09738822      -0.37227842       1.64965724
Mo       3.08597110      11.44876184      21.93691118      -3.58593285       1.82751070       2.06822007       0.77519257      -0.00274806      -0.59630667
C        4.23355097       9.64783522      22.01048055      -0.74242078       0.56785826       1.08478513       0.00853984      -0.29525839      -0.26467530
Mo       6.96484916       8.90170812      24.66451015       0.58454297      -2.76742054       3.10929239      -1.29269983       0.60011572      -0.84191566
Mo       4.00732887       9.66191516      24.16864410      -0.39265930      -2.60233246       2.39798380       0.46986392       0.48478230      -0.55537568
C        5.79667154      10.77378674      24.23799139       0.83464048       0.34405071      -0.92639124      -0.18917992      -0.41772014       0.92873419
Mo       8.43441737      10.18319358      26.80869440       0.23399712       0.77667239      -3.21876985      -0.51895371      -1.03753380      -0.91891334
Mo       5.55552826      10.72677104      26.29684625       1.54364930       3.61144625       2.53415213       0.74510869       0.97190790       0.83597087
C        6.55876230       9.05396535      27.02304082       1.36825521      -1.13371664      -2.00350856       0.34241608      -0.01514375      -0.79541180
Mo       8.34577760      13.30296971      15.22892699      -3.75410459       1.52148882      -0.58043356       0.54810744      -1.74907413       1.71327809
Mo       5.60915405      13.88466272      15.10531559       1.56407027      -0.81831998       1.65998433      -0.48821397       0.74077308      -0.50169264
C        6.67616292      12.08501997      14.78728560      -1.12578159      -0.82748842       1.88220313       1.02398323       0.55117277       0.18096427
Mo       4.43730450      14.16191903      17.64740122       1.48903024       3.02774098      -3.09416899      -0.16860691       1.22006053      -0.20930933
Mo       6.38351664      12.23251880      17.05980912       0.08432308       1.46832718      -0.66175845       1.25450904      -1.09559765       1.25683447
C        8.21925431      13.23143799      17.38637992       0.06010526      -0.33120263      -0.08215262       0.74490540      -0.33457737      -0.69267979
Mo       5.20621477      12.60738552      19.79288993      -1.53170999      -1.85929400      -0.04765251      -0.42741073      -1.08077354       1.64138813
Mo       7.97847807      13.29449484      19.66759545       3.31304270      -2.03437032      -3.99363649       0.54235938      -0.13909287      -1.23327152
C        4.13437313      14.42573237      19.78056976      -1.52039640      -0.31435881      -1.22630282      -0.09136391      -1.01258693       0.08973280
Mo       6.81473720      13.44077930      22.22525913       2.69560307       1.16179670       2.53036540      -0.85394331       1.68950395      -0.51428662
Mo       3.84144085      14.46378225      21.94234926       0.06114753       1.41990750       3.62061389       1.77268548      -0.97098620      -1.51589971
C        4.86765651      12.53431130      22.00441807       0.34255722       0.26318185      -0.00108715       0.58663386       0.78649903      -0.11712673
Mo       7.57844848      11.86283195      24.62492214      -1.38165984       2.85143803       3.64400527      -0.71733030      -1.15457030      -2.06984291
Mo       4.66201212      12.70595965      24.12119400      -1.20609842      -0.21911733       0.30286556       0.92646116      -1.35138491       0.03496550
C        6.58495851      13.66553392      24.34617384      -0.10089066      -1.13514031       0.39301887      -0.53089680      -0.01505792      -0.53505649
Mo       9.22674331      12.99426707      26.45860223      -1.72812406      -1.51618484       0.51306528      -0.65985979      -0.23609695       2.93448992
Mo       6.33501790      13.75518281      26.32661657       4.14899490      -0.61055642       1.68314705       0.00070238      -0.48477249       0.69014130
C        7.39396449      11.95902268      26.77690783       0.44415998       0.11863491      -0.98682179      -0.81258423      -0.52259828      -0.01606908
Mo       9.29413583      16.04273156      15.30633835      -5.96642120       0.38283775      -1.61800978      -1.03975196       0.62378635       0.40948821
Mo       6.46345636      16.80224934      14.99888156      -0.11328128      -1.00305759       4.39020860      -0.78664870       0.57633062       1.24839172
C        7.37968936      15.07574431      14.85870440       0.24676015       0.48779566       1.44605524       0.21331249      -1.21566539      -0.20035733
Mo       5.26406048      17.21986735      17.70560898       1.46822247      -0.29991867      -0.76806250      -0.69571889      -0.80829196      -0.62788995
Mo       7.23929068      15.04155957      17.15999816      -3.81453196       0.03528367      -1.21893526       0.12162456       0.26337886       0.22387178
C        9.00304779      16.15270037      17.39104112       0.53003496       0.22237211      -0.99026487       0.93577551      -1.72319915      -0.43702562
Mo       6.01644277      15.40156245      19.75364990       0.19409544       1.76866256       0.33218492      -0.70717890      -0.56414479       1.39850288
Mo       8.80453781      16.19366769      19.52175161       1.70755777      -1.69072905      -1.30179878       0.94224238      -0.43236692      -0.36119240
C        4.81542520      17.18452338      19.78839826       0.52981694       0.01610122      -0.61055312       0.32130566       0.18406142      -0.69037434
Mo       7.54389978      16.42861556      22.17858002       3.26253519       0.41654432       1.73258393       0.65704720       1.07848149      -0.71025415
Mo       4.78709018      17.22566230      21.81962821      -0.64190805       3.54079343       1.35445182       0.16376316      -0.18561147       0.11979960
C        5.85652946      15.33584123      21.92682104       0.06348869       0.22445572      -0.17417223      -0.93730514       0.33772596       0.49975751
Mo       8.41252228      14.72227102      24.52156972       3.25074334       2.43182287       4.32634070      -1.08742079       0.08086618      -0.31239318
Mo       5.67404831      15.52923765      24.12692011      -1.02618398      -1.36624794       0.66429932      -2.42069759      -0.91068099      -1.09667969
C        7.35228283      16.56572589      24.24484767      -0.36578188       0.47143041       0.73850716       0.57956108       0.89610666       1.53324105
Mo       9.98762729      15.58245216      26.72095600      -2.87193594       2.68364667      -4.93949782      -0.70020926       2.11610565      -0.41332675
Mo       7.01678747      16.64565751      26.36989945       3.30037469      -2.20292244      -1.51661651       1.36733767      -0.19833021      -0.83806700
C        8.02581797      14.81967366      26.77942171      -0.23091627       0.58860661      -1.24700462       0.73535834      -0.26524969       0.19676931
Mo      11.12534538       1.54872632      15.41264165      -2.39340852      -0.00600919      -3.90004320      -1.10544990       0.07940663      -2.25059054
Mo       8.25452771       2.18218290      15.12414382       1.40734420      -2.84147971       4.06613138      -0.50997048       1.55429257       0.31305172
C        9.25739671       0.51878619      14.80493870       1.06423821       0.74146257       1.54622390      -0.33293394      -1.34896171       0.89676480
Mo       6.83727610       2.70117504      17.59870682       3.69861792       1.29209903      -0.37524506       0.71482296      -0.33994884      -0.39638704
Mo       8.95969364       0.53113250      17.29139633       1.31416334       0.24466920      -1.93096829       0.46254401       0.88058911      -0.96858878
C       10.86063710       1.65320910      17.31276444      -0.48546060       0.64865810      -0.64333017      -1.26356916      -0.07476165       1.93421055
Mo       7.80584141       0.89569753      19.70510862      -1.73297073       0.60834892      -2.02110609      -0.66301608      -0.01128929       1.61399888
Mo      10.52950665       1.60670606      19.47642517      -0.30055762       0.97053276       0.21629011       0.83471732       1.24486496      -0.55458321
C        6.75946484       2.73286280      19.73976070       0.19664386       0.66150885       0.21464036      -0.34611813      -1.00513274      -0.45496845
Mo       9.41268847       2.11391086      22.08467098       1.51237247      -0.92616906       4.46559483      -1.59683487      -1.13711770       1.22511060
Mo       6.61613249       2.79277119      21.87408209      -0.00973180       3.39154251       1.42012120      -1.33909984      -0.92215708      -0.06403769
C        7.61392043       0.92834313      21.94290313      -0.08816376       0.55745252       0.69964647       0.01073838       0.57063200      -0.18098455
Mo      10.08756399       0.14572909      24.48143198      -2.32836314      -0.42191669       0.49226178      -0.80179823       1.59005252      -0.24549283
Mo       7.28482109       0.97715210      24.16509484      -1.21908271       3.31374791      -0.18256216      -0.11869373      -0.01800175      -0.49508939
C        9.04841981       2.06469681      24.32965135      -0.11420259       0.74068306      -0.50008224       1.20559114      -0.79462398       0.37979837
Mo      11.64580081       1.37248195      26.47011167       2.27540024      -1.66357873      -1.04495948       1.30360576      -0.72659952       1.45123057
Mo       8.99420902       2.05852273      26.40144544       3.76741584      -2.26278779       0.23980116      -0.41416139       0.49239889      -0.61664486
C        9.87597871       0.26271271      26.87278403      -0.41046324      -0.85717149      -1.34706468       0.24932277       0.20951539      -0.80310029
Mo      11.81325583       4.44093483      15.31742469      -2.47080992       0.88959252      -2.58962598      -0.52395880       0.29050677       0.91981727
Mo       9.03139954       5.07402712      15.03634876       0.97873021      -1.38667319       3.67718615      -0.51024515       0.88528365       1.10417516
C       10.13595855       3.34244647      14.87253974      -0.49117320      -0.48624841       2.12797912      -1.39386469      -0.32609164       0.33284580
Mo       7.72520533       5.65227985      17.58798171       2.17575502      -3.85860930      -2.19113700      -0.12131280      -0.81184967       0.42549909
Mo       9.68958154       3.47812848      17.27734641      -1.42569871      -3.05526527      -1.06989162       0.82345796      -0.08261618      -0.97730305
C       11.52632170       4.54710667      17.30405600       0.49291842       0.83822881      -0.50297854       1.09429968      -1.31397243       0.52979751
Mo       8.51271714       3.84646393      19.95834641      -1.76949812      -2.91840242       0.46249366       0.23219930       0.41276658      -0.88432201
Mo      11.26208080       4.55497989      19.45810615      -2.02317255      -0.04268830      -2.26992743       1.19718244       0.03502019      -0.25609032
C        7.54842942       5.66197462      19.67518051      -0.60457916      -0.43375745       0.57739701      -0.62412331      -0.15929515       0.64032747
Mo      10.12070721       4.91648116      22.16203476       2.05463530      -3.40731128       0.38149786      -0.52138954       0.32033168       1.34542102
Mo       7.25500861       5.77033631      21.94190023      -2.23850956      -1.22677156       1.95203250       0.26082493      -1.02863840      -1.66838044
C        8.25825331       3.94481127      22.07504262       0.14603026      -0.44055560      -0.11607380       0.70608320      -0.52044492       0.17695312
Mo      11.05772718       3.10463573      24.54814480      -0.43861932      -4.64320561       2.89130979      -3.24393616       0.39330448      -1.29534930
Mo       7.96815752       3.86029489      24.31605586      -2.81226933      -3.17910324      -1.25390479       1.69261194       0.84089239      -1.91537282
C        9.88394460       4.87994250      24.31421769       0.48861316       1.69101882       0.53210252       0.05911091       0.26864646       0.29448535
Mo      12.60896358       4.30798036      26.51934380      -0.45253747       0.42269669      -1.50351041      -0.58808787      -0.66595643       1.29777971
Mo       9.77482368       5.00453076      26.35364925       4.48430622      -1.22740197       3.13046558       0.23664729      -0.36746425       0.10587058
C       10.83295725       3.23688117      26.79423199      -0.79319782      -0.95902143      -1.28549589      -0.64440138      -0.32874474      -0.31246484
Mo      12.43210584       7.37620879      15.25311123      -1.15877287       0.55728580       2.05151744       0.05832759       0.28247924       2.26435546
Mo       9.69520863       8.14482716      15.13589127      -0.67712761      -0.82117071       4.77080466      -0.77256999      -0.80203689      -0.22292064
C       10.75277661       6.25460701      14.80914161      -1.01440547      -0.53097979       2.41127694      -0.41498555       0.44979809       0.41851829
Mo       8.63407558       8.42054263      17.72052308      -2.11818266       1.99048531      -1.93102385      -1.82165525       0.54786504      -0.92632376
Mo      10.51491750       6.31756836      17.19436162      -0.82352139      -0.49284090      -0.84756455       0.11087704       0.86523064      -0.18226623
C       12.34293749       7.46301770      17.37561978      -0.26105865       1.45726430      -1.00554806      -0.01252292      -1.26869039      -0.98492901
Mo       9.41405148       6.78639002      19.89639033       0.91245820       2.01416090      -0.11388605      -1.60276724      -1.27487620       0.03850052
Mo      12.04904987       7.40632957      19.46391339       1.41378292       1.41004106      -0.40718008       0.81497919       0.52792205       0.03664822
C        8.17537224       8.57816292      19.79229193      -0.10298738      -0.94209709      -0.83393533      -0.81487361      -0.98209382       0.58307926
Mo      10.85509215       7.76427144      22.35326782      -0.75953167       4.16892651       1.24389732       0.40906196       0.75254904      -0.64211644
Mo       7.99525578       8.47860225      21.98613692       1.46346128       2.57950738      -0.68346803       0.06513652       1.69102417      -1.37911616
C        9.09372693       6.76104983      22.04193489      -0.26181783       0.73745345      -0.46568892       0.09819951      -0.90215754       0.11181405
Mo      11.76070240       5.93426947      24.50396514       4.08886244       0.75285789       2.62549305      -1.86047524       1.30570408      -0.10355500
Mo       8.75002135       6.71382764      24.17443712       0.96921638       2.15228244       4.38480846       1.25804734       0.09737915       0.24826486
C       10.54731625       7.72930996      24.47754159       0.80798906       0.07623243       0.61703347       0.70805182       1.04587326       0.26695870
Mo      13.42784090       7.18325967      26.66010014      -2.47549418       1.56389718      -4.72709702      -2.16530161       0.15380220      -0.29204356
Mo      10.39284619       7.97872041      26.53437234       4.73263393      -0.12567577       4.90290205       1.42340412      -0.87715967      -1.64811586
C       11.55155898       6.07008270      26.77419293       0.01152954       0.26380220      -1.29186415       0.04994421       0.85436029      -0.14307833
Mo      13.13628865      10.38298862      15.33691688      -2.44667701       2.12808114      -1.31992891       1.08091852      -1.82884383       0.09630720
Mo      10.38337080      11.01971913      15.05154972       2.26548893      -1.48071739       5.64241663       0.57366735       0.73210071       1.08137587
C       11.42495805       9.22164603      14.94925474      -1.22998505      -0.88060695       1.63053771       0.47614655       0.27050312      -0.57256491
Mo       9.45133461      11.38947441      17.62173147      -0.08817178      -0.36423748       0.86092494      -2.68847676       0.39847441      -0.84653494
Mo      11.20572981       9.25423250      17.17218919      -2.67384648       0.44857124      -2.26231765       1.45556151      -0.23468064       0.34811660
C       13.08464782      10.30622288      17.27944662       0.05438116       0.02277123      -0.39510060      -0.31303215       0.43960721       1.52988398
Mo       9.95041655       9.55073218      19.91271257       1.90512793       2.27933014       0.71902309       1.72838859       0.83015247       0.61136797
Mo      12.85554734      10.32378785      19.44735318      -0.96707299      -0.80717991      -1.14695538       0.34528055       0.63914448       0.34673001
C        9.09765755      11.47433621      19.73778410      -0.69613785       0.15731985       0.10575955      -1.16932426      -0.86102208       0.41102148
Mo      11.61577814      10.93710701      22.19194960      -2.55775293      -0.03479644       1.32754724       0.00242654      -2.69469267       1.00553539
Mo       8.79389280      11.39906532      21.94571527       0.36513073       0.61501843       0.06833419      -0.45001381       0.31759335      -0.99465729
C        9.81157264       9.56488166      22.02655989       0.55236053       0.57068768      -0.53694920       0.64567373       0.67985996       1.03467545
Mo      12.43322297       8.79422781      24.49356392       1.33974299       1.72073438       1.62831002      -0.45333841       1.55548691       0.78318083
Mo       9.68045411       9.67314637      24.24530944      -3.53420513      -2.20571120       0.83311002      -0.55676169       0.33548420      -0.83875593
C       11.43652559      10.77701702      24.40208616      -0.04790642       1.10550084       0.23981327      -0.05290584       0.09117221      -0.27235709
Mo      13.98251123      10.12108407      26.45301680       1.45813593       2.53605618      -4.10341740       0.75030268      -1.37756170       0.18830207
Mo      11.19629596      10.86293137      26.44882584       1.51596259      -1.86882920       1.44213850       0.27276922      -1.69144596      -1.49253568
C       12.25853132       8.95061907      26.83098321       0.29092683       0.17476743      -1.86579855      -0.07100165       0.48232803      -0.30688862
Mo      14.21224108      13.11943231      15.35741433      -1.07224016       2.27237000       0.37062491      -0.75395764       0.81918583       1.44902445
Mo      11.33023785      13.92103805      15.15226492      -0.98532066      -3.31124978       1.51291740      -0.60585855       0.42654396      -0.46362444
C       12.37529677      12.18070557      14.97573988      -0.67914797      -0.41446434       1.09901193      -1.32726802      -0.33356674      -0.27992503
Mo      10.11251061      14.24214278      17.56450383      -3.05490840      -0.35238151      -1.37078261      -1.11065389       0.38376883       0.31532381
Mo      12.01763896      12.27561759      17.27962292      -0.43131085      -0.43642892       0.08479748       0.87415963      -1.81480296      -0.46723939
C       13.82711529      13.31464621      17.37852598       1.07934939      -0.47864694       0.25189227       1.64806159      -1.09465370      -0.41374061
Mo      10.90276194      12.36892862      19.99887217      -2.94580491       0.82368807      -2.34720703      -0.29038240       1.34530646      -0.32988089
Mo      13.69792276      13.26447710      19.47650361      -0.63884576      -2.34808319      -1.91499864       0.05503632       0.25331726       0.00693351
C        9.82645580      14.23606471      19.72368709       0.48044003       0.10691544       0.70120363      -0.27472259       0.75944274       0.11497033