600
Lattice="28.1778 0.0 0.0 4.672575348 17.3445327417 0.0 0.0 0.0 41.7172" Properties=species:S:1:pos:R:3:momenta:R:3:forces:R:3 energy=-697123.0956557174 stress="-0.020239123210171673 0.0049396184071762985 0.010495924255132846 0.0049396184071762985 -0.006078399655483226 -0.00043928533871438703 0.010495924255132846 -0.00043928533871438703 -0.0032011153756569656" free_energy=-697123.0956557174 pbc="T T T"
Mo       5.48436810       1.51946461      15.33642407       1.80198875      -0.44927003      -0.84180752      -0.29417712       1.53364150       1.15120625
Mo       2.66112827       2.46647252      15.00436488      -1.49970873      -2.53010469      -2.20116157      -1.52258709      -1.95048661       1.65937848
C        3.68659810       0.49543456      15.16008634       1.66393243      -1.11367343      -0.02667309      -1.69425333       1.35584492      -2.12828637
Mo       1.30770470       2.72858949      17.69724393       6.07676627      -2.26654246      -0.11286244       0.21689926      -0.51220475      -2.72968654
Mo       3.42036825       0.64273157      17.20463348       1.45419534      -2.12865599       4.65922655      -1.91160603      -0.45626207       0.72408684
C        5.15682889       1.55457982      17.49115279       0.16608978       0.39222518       0.51657242       0.05487414       2.73449068      -1.33055506
Mo       2.06776696       0.97324253      19.87414916      -3.84649049      -4.03896610      -2.31476981       0.86226650      -1.42837504      -0.53908898
Mo       4.82265779       1.63383136      19.57687714      -3.01856051       3.49817138      -2.94417653       0.38514901       1.07458977      -0.55217351
C        1.09152500       2.74127275      19.63221034      -0.26728219       2.23666734       0.10960228       0.01295757      -0.67062519       2.06994226
Mo       3.68998227       1.94643187      22.23674742      -0.72201700       5.74096558      -2.35413298       0.60584608       1.29053979      -1.01384512
Mo       0.88470468       2.70434182      21.73797902       2.28873285      -0.35890144       4.31461295      -0.56614872       1.21937035       0.86547204
C        1.94823145       0.93897949      21.92580671      -0.23806940       0.12470303      -1.22172819      -0.59473311      -0.89148491       0.42473479
Mo       4.48763429       0.30369383      24.55709864      -1.46058490      -1.05834552       2.36463409       0.90653618      -1.48817500      -1.34167206
Mo       1.66179991       0.99618805      23.99136688      -0.39979681       5.44799637       0.90558995      -0.62612926      -0.26089841       1.38356883
C        3.53352167       2.08769876      24.26243071       1.88086854       0.67412420       0.62725730      -1.09069737      -0.24949570       0.38554571
Mo       6.07007182       1.22175212      26.72855210      -0.20866323      -3.88116085       2.77324381      -0.68971147       0.93602825      -1.81755159
Mo       3.06975304       2.09681843      26.25735910      -0.31238153       1.49895010       1.58696374       0.88781921       0.04029607       0.79628066
C        4.14103286       0.19290319      26.56523195       0.97582566       0.40612616       0.57009622       0.55842871       0.67642576       1.79699311
Mo       6.21633341       4.52343142      15.47537196      -1.87271850       2.82651444       1.29530450      -0.56648420      -0.25667897      -0.93580210
Mo       3.33778650       5.23446493      15.10056284       1.82750215       0.81623856       6.71485767      -0.78387730       2.39379131       0.71620823
C        4.29779758       3.52812284      15.06965415      -0.17810591      -0.35382968      -0.87474079       2.56663689      -1.07146939      -1.03906105
Mo       2.20921613       5.50459386      17.71618348       4.57027691       0.80968445      -1.86758120      -0.62261681       1.16505727      -0.75509808
Mo       4.10559698       3.57908100      17.18632728      -8.14670875      -1.08746400       1.09229572       0.01805452      -1.35503895       1.08743966
C        5.90847050       4.65862602      17.44398550      -1.02102947       0.64687918      -0.39667354       0.33540994      -0.92694787       0.75438758
Mo       2.92050362       3.85335147      19.92019152       4.94493216       2.93449815       3.87740831       0.26331657      -0.76828878      -0.41980048
Mo       5.72338330       4.58195657      19.62170529       1.62525200      -4.12719344       1.04067270      -0.88032661       0.72382433      -1.41359461
C        1.78648794       5.60671821      19.80909884       0.96682380       0.66363152      -0.41443893       1.17743147       1.19217049      -1.19383599
Mo       4.49013380       4.88910304      22.21278268      -4.96065178      -0.61188776       1.76930365      -0.32258744      -0.19302174      -0.58752801
Mo       1.55363672       5.62098148      21.79378975      -3.41393164       0.74163233      -0.46879988       0.25590178       1.10855263       1.45016643
C        2.60958588       3.90180307      21.95200356       0.40144934       0.97937227       1.60521178       0.97600866      -1.35708354       1.12181087
Mo       5.29909596       3.21193958      24.50079409      -1.28295276       1.18124535       2.70831810       1.55505243      -2.15021276      -1.08246124
Mo       2.42376453       3.86601647      24.14989239       6.02350633       3.69711562       3.55258529      -1.26548390       0.05605853      -0.49048786
C        4.23408780       4.85589575      24.32106724       0.01974547      -0.26032301      -0.57757142      -0.92413715       2.05463099       0.53551587
Mo       6.85676546       4.30548261      26.75288345       5.90289307       1.91627656      -2.70518101      -0.36237696      -1.02833205      -1.99267996
Mo       3.95662322       4.95855254      26.42782029      -3.55421580      -3.17813519      -0.10194888      -0.39076052      -0.12903018      -1.81633019
C        4.98506892       3.09313175      26.44118067      -1.64040201       1.01224776       0.89276914       0.69253541       0.03354557       3.36692516
Mo       6.92412558       7.47044759      15.48037645      -0.99901015       5.40143800       1.18954965       0.24113412      -0.88291543      -1.48855236
Mo       4.06551625       8.18266057      14.97790150       0.57696097      -0.67438586       0.86777610       0.59442346       0.19451765       2.26585487
C        5.18852716       6.39488210      15.25052520      -2.03182868      -0.23439466      -0.52420011      -0.78880502      -0.42153939      -1.74977365
Mo       2.87285054       8.47024011      17.57952229       1.21020570       0.81489868      -5.12134623       0.89285279       0.59087643      -0.97596184
Mo       4.81865452       6.43488573      17.32392718      -1.05866393      -3.12827945      -1.68574562       0.37381781      -0.07742107      -0.22226480
C        6.78078398       7.50238272      17.45015282      -1.26391666      -1.10670221      -0.63071536      -1.41471479      -1.23736753      -0.29212683
Mo       3.71122287       6.77266855      19.98175947       0.83120169      -2.47649001      -0.41004363      -0.74454383      -1.77557242      -0.60285639
Mo       6.39974165       7.44406566      19.46262421      -4.64324408      -4.62904385       0.46388483       0.15502198       0.50376948       1.41657787
C        2.69971761       8.52988170      19.64253554      -1.16834002      -0.64395025      -0.66643873      -1.82079712      -0.04317556       1.01570046
Mo       5.25374964       7.81817608      22.12849145       2.06129840       0.77792679      -5.71040464      -0.39916380      -0.45371892       1.21256062
Mo       2.32089510       8.62430174      21.80862884       1.69365244       4.18879401       0.12650919      -0.18020898      -1.17152838       0.06081135
C        3.41187911       6.73223380      22.04089107      -1.66469590      -0.22338516      -0.93859088       0.18326942       0.19673023      -1.06914569
Mo       6.00917321       6.00533826      24.52691256       2.41165405      -1.51203910       0.12438717       0.51726655      -0.59914413      -2.39285209
Mo       3.15870426       6.70718745      23.97987364       2.04471971       0.25398429       0.98358970       0.08378249       0.66367826       2.45912896
C        5.05091404       7.81565582      24.33749802       0.61854060      -1.50430721       0.88942075      -1.70072449      -0.51293012      -1.30961867
Mo       7.49841177       7.05214121      26.63217952       2.55850088       6.75482774       2.78264438       1.45620794       0.11019658      -0.85790372
Mo       4.69875627       7.89873603      26.32184445       0.30090809       0.56889173       0.80681235      -0.46843077       0.13439443       0.25044447
C        5.67990683       6.10555202      26.46264048      -1.66455599      -0.79650286      -0.36226978       0.47591178      -1.08504600       3.80275110
Mo       7.72600484      10.32177926      15.35494352      -1.99002158      -2.92135359      -0.05001814       0.89421410      -0.61477621       1.50888318
Mo       4.95218337      11.12773253      15.08456009       3.50908921      -0.65589244      -1.05417841      -1.53520908      -0.79721252       1.24809334
C        5.92416133       9.28696482      15.22178464       1.76242329      -0.73288684       0.63889625      -0.98450608      -0.49789983      -2.30332615
Mo       3.61060179      11.36571269      17.75656022       1.59913170      -0.44570341       3.34605263       1.40307752      -0.73836117      -2.31591266
Mo       5.69321523       9.22707774      17.29055578       0.64587642      -0.76104466      -0.96157668      -1.45698636       1.18961528       0.39044567
C        7.43305086      10.26542561      17.41986060       0.17644256       1.02480853       1.07201703       1.64140615       0.37221448      -0.56875801
Mo       4.36729211       9.50161692      19.84340974       2.81879780      -2.69099574       0.79890339       2.32008876       0.91629828       0.83140862
Mo       7.27448606      10.30395058      19.50119828      -0.62757319       0.99777070      -0.88212592      -0.90547926       0.54621923       0.60283434
C        3.51334262      11.38612613      19.78418818       0.24179122      -0.82740844       0.70112632      -2.15354927       0.23073858      -0.60079399
Mo       5.91408867      10.63249424      22.07371992      -2.27776588       3.04238142      -3.52794591       0.79151698       0.17060411       1.35353314
Mo       3.10648140      11.40895160      21.75746802       0.71534535      -2.22833754       4.67228349       0.08110648       0.55626318       1.40254052
C        4.08905971       9.58288641      22.02833992      -0.39191380       1.05939794       1.25997495       1.04689068       0.18192265      -0.54149092
Mo       6.72813072       8.87210802      24.46916184       5.14532314       2.34407849       4.53067654       2.67148174      -0.01202301      -1.00028350
Mo       3.99272811       9.58317729      24.13443424       1.24113207       1.38893839       0.57261862      -1.16680009       1.10704995       0.09120459
C        5.80594821      10.66280738      24.24714288       0.86386183       0.89960660      -2.81977829      -0.80394254       1.13067940      -0.13614763
Mo       8.41911837       9.91262705      26.69880837       2.19306455       2.89899865       6.01539222      -0.69871846      -0.20877354      -2.01843805
Mo       5.56667464      10.80743239      26.27176556      -0.18338062      -2.98633914      -1.18680791      -0.47630146      -0.91478892       0.35385831
C        6.49736614       8.85275215      26.56170559       1.06320055      -1.42587213       1.45736167       0.68646529       1.57288657       1.66504567
Mo       8.52794785      13.15940625      15.36034059      -1.45325506       4.51596771      -2.12658740       0.37543927       0.09083869       0.35144908
Mo       5.73046048      13.85012605      14.94653492      -2.59893680      -1.00528005      -0.57789483      -0.58793223       1.49245505       1.96225772
C        6.72920246      12.12138301      15.16211652      -0.67638436      -2.23469394      -1.36292702       0.65222200       0.05654504      -2.36178722
Mo       4.42879337      14.17082428      17.65582602      -2.21327183      -3.74095362       4.78378895       1.38108223       1.69189335      -2.39453323
Mo       6.46914567      12.10673269      17.20533475      -1.84955364       0.64579735      -3.74192808      -0.65990438       0.76141896       1.52337281
C        8.25831572      13.11083525      17.38311988       0.41417115       0.04948498      -1.04082603      -0.11337780       0.91457978       0.72954593
Mo       5.15821871      12.46562212      19.83120100       1.57808672       6.49988181      -1.22017471       1.73316307       0.32727218       0.99395148
Mo       8.09851045      13.28380433      19.59549765      -1.89262874       2.29726154       5.59729217      -1.44404478      -1.04687273      -0.99332566
C        4.17779591      14.32431129      19.61769671      -2.20419310       0.46099203      -0.38291354       0.13538159       0.08506954       2.04944372
Mo       6.77517297      13.56874051      22.22829716      -0.08409442      -5.19636490      -0.81561243       0.18522417      -0.10217288      -1.66203262
Mo       3.92872480      14.29516712      21.77167991      -1.46214704       4.21573277       2.64096692       0.39734552       1.25270320      -0.00114676
C        4.91044912      12.52791188      21.98125828      -0.82957765      -0.71221126      -0.97864331       0.74192679      -0.47903558      -0.81952316
Mo       7.51550309      11.88238540      24.48145272      -0.28714380       0.63542231       2.47654985       1.85893356      -2.63666821      -1.30746267
Mo       4.67384650      12.50164650      24.00239124      -0.27977550       4.81356562       0.24186975      -0.34298859      -0.27207272       1.62841892
C        6.50585901      13.53000111      24.23189697       0.88190355      -0.25846437       1.34951584      -0.38426527       1.75077234       1.26526455
Mo       9.08350844      12.82860431      26.78205653       5.54508790       3.71416017      -3.94202844       0.33285245       0.39826604      -2.01371853
Mo       6.19878661      13.67259203      26.31875182      -0.32746006       1.83535769      -0.97550124       0.60723219      -0.14492290      -0.41827221
C        7.37780193      11.75016983      26.48682285      -0.73602603       0.22893191      -0.17193801       0.07291854       0.63199934       2.55527849
Mo       9.38973959      16.13246230      15.44147837       1.46821392      -0.01681375       0.22702843      -0.36485886      -1.92342548      -0.54798046
Mo       6.41850396      16.77454975      15.01111422      -0.55934798       0.45130871      -5.16729557       0.78062658       0.58198309       1.85302416
C        7.56094859      15.03599282      15.15914317      -0.59505940       0.56117621      -1.63982313      -0.62978292      -0.59067329      -1.37481022
Mo       5.15735869      17.21322044      17.59836279      -1.80221527       0.53033207       3.76512713       3.51578133      -0.31892411      -0.60460333
Mo       7.21814987      15.03513645      17.26698882       1.12383967       0.68878910      -0.66477800      -0.42630883      -0.40756498      -0.27638954
C        9.02989053      16.05134614      17.42106801       1.16299417       1.03674602      -1.86275299       0.47823123       0.90854644      -0.01272715
Mo       5.95440068      15.38984133      19.83392562       1.90983997       2.05669962      -2.27546007       0.98428822      -0.87527203       0.82056751
Mo       8.80241772      16.16008247      19.44759638       0.21098613       1.94305505       0.48011733       0.46022767      -0.04248254       0.82847817
C        4.94344002      17.10896642      19.65375838       0.35461374      -0.14127025       0.77944905       0.54781321       2.13699069       1.31756902
Mo       7.63215793      16.41794018      22.23634999      -3.23219863      -2.35724442      -1.94963481      -0.41146003       0.28758717      -1.25291120
Mo       4.69357819      17.27073086      21.85117656       3.88922795      -2.54879899      -1.33813598       0.81770399      -0.78294270      -0.54559500
C        5.77412248      15.36759574      21.96310939       0.13302944      -0.97359279      -0.33627349      -0.39336967       0.62089190       0.17401301
Mo       8.30305572      14.75117763      24.51428791       2.26140730      -1.87325702      -0.21051385       1.84660178      -1.86346580       0.21553365
Mo       5.63172697      15.39015210      24.11881271       7.38408059       3.37302772       0.05518536      -3.30800422       0.59629395      -0.33191585
C        7.33320155      16.47497712      24.23609404      -1.78362908       1.32137548       2.11883949       0.64043363       1.58767239       0.62838735
Mo       9.94360691      15.75984356      26.80108554       2.84952971      -6.11194523       3.37649817      -1.02256742      -0.07673283      -2.12649723
Mo       6.97290287      16.62200609      26.27878132      -4.38223340       2.75069013      -0.36663730       0.66779194      -1.04932854       0.62525166
C        8.01655328      14.65483006      26.62821923       0.14533368       0.35679151       1.34224661       0.69895904       0.70496447       0.96661354
Mo      11.07973535       1.60396385      15.36402853       3.73258948      -1.14709001       3.99278170      -0.15930330       0.25141192       1.05796317
Mo       8.30005745       2.34828288      15.05859103       2.85540854      -3.67670319      -0.85424474      -1.83443022       0.42047802       1.52275434
C        9.27185876       0.57402770      15.19480815       1.57786271       1.44111974      -0.00404283      -0.34131489      -0.72962688      -2.17490280
Mo       6.88100665       2.74433524      17.64544192      -7.71397894      -2.03864855      -0.02675926       0.90877803      -0.16569107      -0.04901335
Mo       8.94249300       0.67108498      17.25777187       1.44394852      -0.43707856       3.33824410      -0.15421492       0.04427614       0.78316615
C       10.72521444       1.75986788      17.40389957      -1.99532392       0.64591589      -2.34361381       1.60324679      -1.55164839       0.61392360
Mo       7.66780615       0.99613807      19.92121600       3.60632605      -0.85768956      -4.22779175       2.12955391      -0.96741794       0.06574119
Mo      10.51596668       1.60889431      19.59044447       0.51974334      -2.29255164      -1.20527782       0.76082020       1.67382105      -0.69431148
C        6.75289936       2.78580316      19.79580381       0.29146479       0.99695655      -0.72071743      -1.26147359      -0.25849077      -2.29835861
Mo       9.34652418       1.94971559      22.12247666      -0.11039850       2.60189011      -5.16215613      -0.53458361       0.88646193      -0.08602227
Mo       6.43728343       2.82845109      21.71773391       4.46304755      -2.70608923       2.34998937      -0.17340586      -0.35744367       3.26218174
C        7.51458284       0.98486782      22.07793366       0.20701268      -0.81881880      -0.09443680      -0.62904711      -0.60210421      -2.06064650
Mo      10.03755534       0.26871951      24.37766380       0.88639988      -3.43339312       1.74912629       2.00975678      -1.10597197       0.82361343
Mo       7.31821352       0.91347237      24.05046792      -0.01027887      -2.29420566      -0.02870818      -1.36374386       1.24078090       1.36819442
C        9.11569155       2.05435560      24.18861977       0.06697777       2.25579566      -0.35286131      -0.99545974      -0.20906752       1.05318462
Mo      11.65975784       1.36355755      26.73625972      -2.31874887       0.74662859      -2.67956718      -0.06961452      -0.51960977      -2.25270295
Mo       8.85851264       2.09980368      26.30504644       3.35580580      -1.55600318       3.43540829      -1.33654018      -0.81925893      -0.65122036
C        9.77099194       0.17015579      26.58126856      -0.41687136      -0.14066034      -0.59932185       1.66603527       3.61407093       1.52254041
Mo      11.83369587       4.47226257      15.37301808       1.77292583      -0.65607622       1.10199119       0.21672539       0.24463250       0.88991941
Mo       9.09235210       5.18979836      15.00577192       2.57100007      -3.99358948      -2.46835453      -2.69775675       0.40428827       1.70135555
C       10.00309946       3.42001803      15.10851694      -0.04221281      -1.34388295       0.24733422       1.22901087       0.01302136      -1.31015628
Mo       7.79379641       5.69715933      17.65899669      -3.00750378       3.82388552      -0.00328026       0.05957186      -1.87150771      -1.06897572
Mo       9.80649057       3.56401799      17.30865723      -0.72301924      -1.12863933      -0.36127348      -1.35018435       0.00091450      -0.77440544
C       11.57570220       4.59265641      17.43066893       2.48439693       1.13341837      -1.70006214       0.15394712      -0.57960717      -0.97538273
Mo       8.49335161       3.86137029      20.00921399      -0.08569288       2.85189534       1.65068847       1.74794468      -1.03500097      -3.00291760
Mo      11.40830833       4.57514414      19.45827890      -0.99690736       0.40338267       0.23710429      -1.37909945      -1.06336109       1.47424726
C        7.54361953       5.68312415      19.68582676      -1.55139641      -0.76577545       1.14538661      -0.81963521      -0.24235000      -0.07266513
Mo      10.15003119       4.98167201      22.18376210      -0.47983952       1.56567728      -0.45820260      -0.36819149      -1.22829393      -0.96870759
Mo       7.27270443       5.68104328      21.71832073       1.27615075       4.96938775       1.11216963      -1.52851633       0.25508677       1.78353642
C        8.23970285       3.90782241      21.92268050       0.34869462      -0.16677915       1.43163288       1.06069063      -1.04610897       2.46434862
Mo      10.83552574       3.09720482      24.46701662       5.85626204       2.36978849       2.46868790       1.50244072       0.36093964      -0.38862519
Mo       8.11780719       3.86193497      24.06766702       1.49386836       0.94981902       6.37350511      -1.59594989       0.47795691      -0.03256560
C        9.86494142       4.95071841      24.20196859      -0.26004266       0.45949748       0.26370483       0.05352209      -0.34627854       1.85771123
Mo      12.41608017       4.14282981      26.65175975       5.44395962       2.03700521      -0.49963436       0.03430929       0.54885906      -1.66510646
Mo       9.59327592       4.97057075      26.40784084       2.37866977      -0.12168175      -4.17608967      -0.05725496       0.62314661      -2.03446002
C       10.53121316       3.14991234      26.54584629      -1.10710561      -0.53796626       0.16355917       1.75885681       0.27165140       2.33096989
Mo      12.48388676       7.41892120      15.30949718      -1.31762952      -0.20374390      -0.46491272       2.44552923      -1.62138729       1.19524988
Mo       9.85902977       8.10056233      14.98808609      -1.47981558       1.34058923       1.42928029      -4.74640161       1.40407199       0.85334787
C       10.66327630       6.38697292      15.14961060      -0.92064627      -1.78510036      -1.61122614       2.27056656      -1.89734669      -1.86026428
Mo       8.53969481       8.39494834      17.70599828       2.88398636      -0.35774961       2.35417572       1.75587591       1.66492865      -1.72016514
Mo      10.49154628       6.44632995      17.20828686       0.40612014      -2.09270772       0.05801258      -0.10082985      -0.69358301       1.12637682
C       12.32273283       7.40293242      17.37586743       1.24588457       2.19231741      -2.31334330       0.34170688       0.27473696       0.27616046
Mo       9.31680642       6.61609313      19.96898550       3.79329680       2.92289008      -0.27189432       0.64075327       1.48491268      -2.49693183
Mo      12.09036932       7.46660527      19.52178679      -1.31900146      -2.85558377      -0.47624085      -0.19209321      -0.10779330       0.47066182
C        8.21266539       8.48849668      19.65209397      -0.96881833      -1.63782245       0.33197064       0.76643161      -0.02552282       2.23241116
Mo      10.77794896       7.84816774      22.29050463      -0.93799083      -3.93712620       4.65667499       1.22513375      -0.96722142      -1.45672355
Mo       7.99634855       8.50198457      21.84880187      -1.20195909      -5.70457068       3.70851855       0.14027539       1.23643929      -0.86086311
C        9.03382911       6.69936426      21.91135150       0.25470590       1.95286099       0.08157053       0.51830153       0.48014830       2.37119068
Mo      11.66107158       6.01459172      24.35510025      -1.56948965      -3.99162987       0.31247556       0.83499225      -0.26655567       0.94564290
Mo       8.75082020       6.69580230      24.10328762       0.18089532      -7.26126411      -0.72984689      -0.47043572       0.97788487       0.42825462
C       10.53146922       7.72930949      24.33222369       0.76988568      -0.53494638       0.51491254       0.13171233       1.42659362       0.80558112
Mo      13.14919366       7.12952692      26.67449262       7.86231952       0.35517882       2.07460323       0.87723639       0.13048454      -1.51419039
Mo      10.27606994       7.83944588      26.39769390      -1.51984548       3.13002323       2.91188891       0.26745129       0.63898078      -1.36719001
C       11.44978215       6.12182329      26.49152421      -0.28071397      -0.03539781      -0.16089855      -0.59642597      -2.13185952       1.80268757
Mo      13.38868647      10.23042494      15.34318574      -3.09551742       3.23887455       1.99449642      -0.34801589       0.36881739       0.50368423
Mo      10.61083151      10.95912284      14.90586344      -4.23963489      -0.10903724      -2.31702219      -1.41013220       0.56000700       2.16944150
C       11.47814564       9.10569059      15.06337827      -0.60943120      -0.14700666      -2.20692836       2.01595758       2.62948348      -1.45845638
Mo       9.32097491      11.35925420      17.72189339       3.64735819      -0.21849761      -0.65150736      -0.30591632      -0.76839051      -1.14381971
Mo      11.39105914       9.23353716      17.22274162      -0.08911846       0.12629549       0.72671835      -1.99591786       0.98932610       0.02401356
C       13.08919597      10.34683610      17.37250664      -0.26477672       0.31676717      -1.03842542       0.60365253       0.28257908       0.75618735
Mo      10.08003882       9.55619968      19.92271086      -2.97126916      -2.27319274      -0.38832551       0.45695671      -0.55737758      -1.11857646
Mo      12.87723554      10.31830121      19.61151283       1.57712722      -0.83423407      -3.64722142       0.14707420       1.49499564      -0.78883643
C        9.04669787      11.35564499      19.82951572      -1.64884800       0.43024589       0.55441819       0.19075650       0.80839126      -2.15256854
Mo      11.61832605      10.79335750      22.23848272      -0.75358019       7.48149480      -0.93065031       1.48914375      -2.51462323      -1.37471836
Mo       8.78840257      11.36351285      21.77189022      -0.65774307      -0.56519262       3.82125063      -0.74452365       1.65679194       2.04159283
C        9.88027170       9.67969670      21.91490216       1.31583167       0.57940144      -0.65465212      -0.60769491      -1.26728877       1.43277897
Mo      12.32022224       8.93702005      24.54359972      -2.61256860      -4.91374508      -0.83139616       0.85776045      -0.47772879      -1.15791004
Mo       9.61380768       9.60972968      24.04416016       5.71798237       1.29186396       4.49940398      -1.52685935       0.56425024       0.99366246
C       11.30056481      10.83477383      24.20423367       0.68104593       0.44857491       1.10264574       1.27121813      -1.83085426       2.25927585
Mo      13.96790704       9.95404283      26.71389474      -2.03724028       2.65346611      -3.79652791       0.06309018      -0.05238228      -1.72732996
Mo      11.16575656      10.84435133      26.28540350      -1.59799055       1.89909310       1.04267505      -0.66431822      -1.57048384       0.56559847
C       12.04543668       8.89412128      26.59736457      -0.37012940       1.18447334       0.00595791       1.07522107       0.63094469       1.79615581
Mo      14.23555521      13.18729915      15.39349830       3.37062575       0.08528472      -0.85006054      -0.89451357      -0.29273721       0.10138584
Mo      11.36389544      13.88584180      15.07982022       0.86341239       0.72446598      -0.55145825      -0.90257203       0.52818014       1.01442592
C       12.28042089      12.06379575      15.16366399      -1.32544452      -0.74844958      -1.25946669       1.26872630       0.27282455      -1.75611801
Mo       9.98523699      14.20528908      17.68495293       2.27653711       1.52037973      -2.24187530       1.74140302       0.19211587      -1.55012061
Mo      12.01191202      12.19217925      17.22254484      -2.28067003       3.72965114       1.48964783       0.75244722      -0.15022790       0.71985466
C       14.00902928      13.14912178      17.42133744       3.47020220      -0.14917935      -0.20676925      -2.58205358       2.47390195      -0.12585512
Mo      10.90835124      12.42537815      19.94163127       4.31070869      -1.90894885       3.46683685      -0.62621315       0.15505686      -1.34162533
Mo      13.67261825      13.29537646      19.62697444       3.46596496       1.82059543       0.60823566      -0.90299506      -0.51698176      -1.33145789
C        9.86652372      14.26968846      19.68106913      -0.13038728       0.70472214       1.77994444       0.28176892       0.78800428       0.76803830